version 2
run debug-0-20141008-09:25:25-22371
attr configname debug
attr datetime 20141008-09:25:25
attr experiment debug
attr inifile omnetpp.ini
attr iterationvars ""
attr iterationvars2 $repetition=0
attr measurement ""
attr network RSUVehicleScenario
attr processid 22371
attr repetition 0
attr replication #0
attr resultdir results
attr runnumber 0
attr seedset 0

vector 4  RSUVehicleScenario.node[0].veinsmobility  posx  ETV
vector 5  RSUVehicleScenario.node[0].veinsmobility  posy  ETV
vector 6  RSUVehicleScenario.node[0].veinsmobility  speed  ETV
vector 7  RSUVehicleScenario.node[0].veinsmobility  acceleration  ETV
vector 8  RSUVehicleScenario.node[0].veinsmobility  co2emission  ETV
vector 11  RSUVehicleScenario.node[1].veinsmobility  posx  ETV
vector 12  RSUVehicleScenario.node[1].veinsmobility  posy  ETV
vector 13  RSUVehicleScenario.node[1].veinsmobility  speed  ETV
vector 14  RSUVehicleScenario.node[1].veinsmobility  acceleration  ETV
vector 15  RSUVehicleScenario.node[1].veinsmobility  co2emission  ETV
vector 18  RSUVehicleScenario.node[2].veinsmobility  posx  ETV
vector 19  RSUVehicleScenario.node[2].veinsmobility  posy  ETV
vector 20  RSUVehicleScenario.node[2].veinsmobility  speed  ETV
vector 21  RSUVehicleScenario.node[2].veinsmobility  acceleration  ETV
vector 22  RSUVehicleScenario.node[2].veinsmobility  co2emission  ETV
vector 25  RSUVehicleScenario.node[3].veinsmobility  posx  ETV
vector 26  RSUVehicleScenario.node[3].veinsmobility  posy  ETV
vector 27  RSUVehicleScenario.node[3].veinsmobility  speed  ETV
vector 28  RSUVehicleScenario.node[3].veinsmobility  acceleration  ETV
vector 29  RSUVehicleScenario.node[3].veinsmobility  co2emission  ETV
vector 32  RSUVehicleScenario.node[4].veinsmobility  posx  ETV
vector 33  RSUVehicleScenario.node[4].veinsmobility  posy  ETV
vector 34  RSUVehicleScenario.node[4].veinsmobility  speed  ETV
vector 35  RSUVehicleScenario.node[4].veinsmobility  acceleration  ETV
vector 36  RSUVehicleScenario.node[4].veinsmobility  co2emission  ETV
vector 39  RSUVehicleScenario.node[5].veinsmobility  posx  ETV
vector 40  RSUVehicleScenario.node[5].veinsmobility  posy  ETV
vector 41  RSUVehicleScenario.node[5].veinsmobility  speed  ETV
vector 42  RSUVehicleScenario.node[5].veinsmobility  acceleration  ETV
vector 43  RSUVehicleScenario.node[5].veinsmobility  co2emission  ETV
vector 46  RSUVehicleScenario.node[6].veinsmobility  posx  ETV
vector 47  RSUVehicleScenario.node[6].veinsmobility  posy  ETV
vector 48  RSUVehicleScenario.node[6].veinsmobility  speed  ETV
vector 49  RSUVehicleScenario.node[6].veinsmobility  acceleration  ETV
vector 50  RSUVehicleScenario.node[6].veinsmobility  co2emission  ETV
vector 53  RSUVehicleScenario.node[7].veinsmobility  posx  ETV
vector 54  RSUVehicleScenario.node[7].veinsmobility  posy  ETV
vector 55  RSUVehicleScenario.node[7].veinsmobility  speed  ETV
vector 56  RSUVehicleScenario.node[7].veinsmobility  acceleration  ETV
vector 57  RSUVehicleScenario.node[7].veinsmobility  co2emission  ETV
vector 60  RSUVehicleScenario.node[8].veinsmobility  posx  ETV
vector 61  RSUVehicleScenario.node[8].veinsmobility  posy  ETV
vector 62  RSUVehicleScenario.node[8].veinsmobility  speed  ETV
vector 63  RSUVehicleScenario.node[8].veinsmobility  acceleration  ETV
vector 64  RSUVehicleScenario.node[8].veinsmobility  co2emission  ETV
vector 67  RSUVehicleScenario.node[9].veinsmobility  posx  ETV
vector 68  RSUVehicleScenario.node[9].veinsmobility  posy  ETV
vector 69  RSUVehicleScenario.node[9].veinsmobility  speed  ETV
vector 70  RSUVehicleScenario.node[9].veinsmobility  acceleration  ETV
vector 71  RSUVehicleScenario.node[9].veinsmobility  co2emission  ETV
vector 74  RSUVehicleScenario.node[10].veinsmobility  posx  ETV
vector 75  RSUVehicleScenario.node[10].veinsmobility  posy  ETV
vector 76  RSUVehicleScenario.node[10].veinsmobility  speed  ETV
vector 77  RSUVehicleScenario.node[10].veinsmobility  acceleration  ETV
vector 78  RSUVehicleScenario.node[10].veinsmobility  co2emission  ETV
vector 81  RSUVehicleScenario.node[11].veinsmobility  posx  ETV
vector 82  RSUVehicleScenario.node[11].veinsmobility  posy  ETV
vector 83  RSUVehicleScenario.node[11].veinsmobility  speed  ETV
vector 84  RSUVehicleScenario.node[11].veinsmobility  acceleration  ETV
vector 85  RSUVehicleScenario.node[11].veinsmobility  co2emission  ETV
vector 88  RSUVehicleScenario.node[12].veinsmobility  posx  ETV
vector 89  RSUVehicleScenario.node[12].veinsmobility  posy  ETV
vector 90  RSUVehicleScenario.node[12].veinsmobility  speed  ETV
vector 91  RSUVehicleScenario.node[12].veinsmobility  acceleration  ETV
vector 92  RSUVehicleScenario.node[12].veinsmobility  co2emission  ETV
vector 95  RSUVehicleScenario.node[13].veinsmobility  posx  ETV
vector 96  RSUVehicleScenario.node[13].veinsmobility  posy  ETV
vector 97  RSUVehicleScenario.node[13].veinsmobility  speed  ETV
vector 98  RSUVehicleScenario.node[13].veinsmobility  acceleration  ETV
vector 99  RSUVehicleScenario.node[13].veinsmobility  co2emission  ETV
vector 102  RSUVehicleScenario.node[14].veinsmobility  posx  ETV
vector 103  RSUVehicleScenario.node[14].veinsmobility  posy  ETV
vector 104  RSUVehicleScenario.node[14].veinsmobility  speed  ETV
vector 105  RSUVehicleScenario.node[14].veinsmobility  acceleration  ETV
vector 106  RSUVehicleScenario.node[14].veinsmobility  co2emission  ETV
vector 109  RSUVehicleScenario.node[15].veinsmobility  posx  ETV
vector 110  RSUVehicleScenario.node[15].veinsmobility  posy  ETV
vector 111  RSUVehicleScenario.node[15].veinsmobility  speed  ETV
vector 112  RSUVehicleScenario.node[15].veinsmobility  acceleration  ETV
vector 113  RSUVehicleScenario.node[15].veinsmobility  co2emission  ETV
vector 116  RSUVehicleScenario.node[16].veinsmobility  posx  ETV
vector 117  RSUVehicleScenario.node[16].veinsmobility  posy  ETV
vector 118  RSUVehicleScenario.node[16].veinsmobility  speed  ETV
vector 119  RSUVehicleScenario.node[16].veinsmobility  acceleration  ETV
vector 120  RSUVehicleScenario.node[16].veinsmobility  co2emission  ETV
vector 123  RSUVehicleScenario.node[17].veinsmobility  posx  ETV
vector 124  RSUVehicleScenario.node[17].veinsmobility  posy  ETV
vector 125  RSUVehicleScenario.node[17].veinsmobility  speed  ETV
vector 126  RSUVehicleScenario.node[17].veinsmobility  acceleration  ETV
vector 127  RSUVehicleScenario.node[17].veinsmobility  co2emission  ETV
vector 130  RSUVehicleScenario.node[18].veinsmobility  posx  ETV
vector 131  RSUVehicleScenario.node[18].veinsmobility  posy  ETV
vector 132  RSUVehicleScenario.node[18].veinsmobility  speed  ETV
vector 133  RSUVehicleScenario.node[18].veinsmobility  acceleration  ETV
vector 134  RSUVehicleScenario.node[18].veinsmobility  co2emission  ETV
vector 137  RSUVehicleScenario.node[19].veinsmobility  posx  ETV
vector 138  RSUVehicleScenario.node[19].veinsmobility  posy  ETV
vector 139  RSUVehicleScenario.node[19].veinsmobility  speed  ETV
vector 140  RSUVehicleScenario.node[19].veinsmobility  acceleration  ETV
vector 141  RSUVehicleScenario.node[19].veinsmobility  co2emission  ETV
vector 144  RSUVehicleScenario.node[20].veinsmobility  posx  ETV
vector 145  RSUVehicleScenario.node[20].veinsmobility  posy  ETV
vector 146  RSUVehicleScenario.node[20].veinsmobility  speed  ETV
vector 147  RSUVehicleScenario.node[20].veinsmobility  acceleration  ETV
vector 148  RSUVehicleScenario.node[20].veinsmobility  co2emission  ETV
vector 151  RSUVehicleScenario.node[21].veinsmobility  posx  ETV
vector 152  RSUVehicleScenario.node[21].veinsmobility  posy  ETV
vector 153  RSUVehicleScenario.node[21].veinsmobility  speed  ETV
vector 154  RSUVehicleScenario.node[21].veinsmobility  acceleration  ETV
vector 155  RSUVehicleScenario.node[21].veinsmobility  co2emission  ETV
vector 158  RSUVehicleScenario.node[22].veinsmobility  posx  ETV
vector 159  RSUVehicleScenario.node[22].veinsmobility  posy  ETV
vector 160  RSUVehicleScenario.node[22].veinsmobility  speed  ETV
vector 161  RSUVehicleScenario.node[22].veinsmobility  acceleration  ETV
vector 162  RSUVehicleScenario.node[22].veinsmobility  co2emission  ETV
vector 165  RSUVehicleScenario.node[23].veinsmobility  posx  ETV
vector 166  RSUVehicleScenario.node[23].veinsmobility  posy  ETV
vector 167  RSUVehicleScenario.node[23].veinsmobility  speed  ETV
vector 168  RSUVehicleScenario.node[23].veinsmobility  acceleration  ETV
vector 169  RSUVehicleScenario.node[23].veinsmobility  co2emission  ETV
vector 172  RSUVehicleScenario.node[24].veinsmobility  posx  ETV
vector 173  RSUVehicleScenario.node[24].veinsmobility  posy  ETV
vector 174  RSUVehicleScenario.node[24].veinsmobility  speed  ETV
vector 175  RSUVehicleScenario.node[24].veinsmobility  acceleration  ETV
vector 176  RSUVehicleScenario.node[24].veinsmobility  co2emission  ETV
vector 179  RSUVehicleScenario.node[25].veinsmobility  posx  ETV
vector 180  RSUVehicleScenario.node[25].veinsmobility  posy  ETV
vector 181  RSUVehicleScenario.node[25].veinsmobility  speed  ETV
vector 182  RSUVehicleScenario.node[25].veinsmobility  acceleration  ETV
vector 183  RSUVehicleScenario.node[25].veinsmobility  co2emission  ETV
vector 186  RSUVehicleScenario.node[26].veinsmobility  posx  ETV
vector 187  RSUVehicleScenario.node[26].veinsmobility  posy  ETV
vector 188  RSUVehicleScenario.node[26].veinsmobility  speed  ETV
vector 189  RSUVehicleScenario.node[26].veinsmobility  acceleration  ETV
vector 190  RSUVehicleScenario.node[26].veinsmobility  co2emission  ETV
vector 193  RSUVehicleScenario.node[27].veinsmobility  posx  ETV
vector 194  RSUVehicleScenario.node[27].veinsmobility  posy  ETV
vector 195  RSUVehicleScenario.node[27].veinsmobility  speed  ETV
vector 196  RSUVehicleScenario.node[27].veinsmobility  acceleration  ETV
vector 197  RSUVehicleScenario.node[27].veinsmobility  co2emission  ETV
vector 200  RSUVehicleScenario.node[28].veinsmobility  posx  ETV
vector 201  RSUVehicleScenario.node[28].veinsmobility  posy  ETV
vector 202  RSUVehicleScenario.node[28].veinsmobility  speed  ETV
vector 203  RSUVehicleScenario.node[28].veinsmobility  acceleration  ETV
vector 204  RSUVehicleScenario.node[28].veinsmobility  co2emission  ETV
vector 207  RSUVehicleScenario.node[29].veinsmobility  posx  ETV
vector 208  RSUVehicleScenario.node[29].veinsmobility  posy  ETV
vector 209  RSUVehicleScenario.node[29].veinsmobility  speed  ETV
vector 210  RSUVehicleScenario.node[29].veinsmobility  acceleration  ETV
vector 211  RSUVehicleScenario.node[29].veinsmobility  co2emission  ETV
8	4	0.3	1.4276208928798
8	5	0.4	1.5553504369406
8	6	0.5	1.6547258140606
8	7	0.6	1.7983555805977
8	8	0.7	1.8323674505787
8	9	0.8	2.0110897446338
8	10	0.9	1.970451684244
8	11	1	2.244901373431
8	12	1.1	2.2119208452933
8	13	1.2	2.2548819012347
8	14	1.3	2.5345448660167
8	15	1.4	2.6013847819414
8	16	1.5	2.852151772081
8	17	1.6	2.3526342216865
8	18	1.7	3.339605186172
8	19	1.8	2.4276646371033
8	20	1.9	3.3234379637286
8	21	2	3.3108190720898
8	22	2.1	3.2988402737822
8	23	2.2	2.9578171889378
8	24	2.3	2.9959376211745
8	25	2.4	3.4908200907348
8	26	2.5	3.6670806850063
8	27	2.6	3.6268696198063
8	28	2.7	4.0205201967415
8	29	2.8	3.1988957479633
8	30	2.9	3.4137976506977
8	31	3	4.907912272511
8	32	3.1	4.5496391886597
8	33	3.2	5.1843707050129
8	34	3.3	5.490502883119
8	35	3.4	3.8970556575359
8	36	3.5	4.0812734992789
8	37	3.6	3.9458891055838
8	38	3.7	3.7593760917064
8	39	3.8	4.2273339749307
8	40	3.9	5.1045553963918
8	41	4	4.4294934204996
8	42	4.1	6.1704815888201
8	43	4.2	4.9722185416067
8	44	4.3	6.3796667209292
8	45	4.4	4.3550328563445
8	46	4.5	5.5724689565354
8	47	4.6	5.9783016536976
8	48	4.7	6.531517038645
8	49	4.8	5.1600288586713
8	50	4.9	6.1886912441601
8	51	5	5.9549957283831
8	52	5.1	7.7853608744789
8	53	5.2	6.0293065596097
8	54	5.3	6.1389862136434
8	55	5.4	6.215380184048
8	56	5.5	5.2080809029875
8	57	5.6	6.1561018361202
8	58	5.7	7.3629412347938
8	59	5.8	7.2141082079045
8	60	5.9	6.3899916329279
8	61	6	8.8173762262081
8	62	6.1	6.712915009577
8	63	6.2	6.7856909201694
8	64	6.3	8.0773156423548
8	65	6.4	8.3743676988308
8	66	6.5	8.4713421478856
8	67	6.6	8.1436375074094
8	68	6.7	6.1246890190291
8	69	6.8	9.3014481119437
8	70	6.9	6.1272339967354
8	71	7	9.3496226877566
8	72	7.1	8.5304672898817
8	73	7.2	9.1242607840614
8	74	7.3	0.973
8	75	7.4	4.3577761273913
8	76	7.5	0.973
8	77	7.6	2.5720389208699
8	78	7.7	2.8766605061585
8	79	7.8	4.3165487169568
8	80	7.9	0.973
8	81	8	1.5897409358382
8	82	8.1	4.2992840120413
8	83	8.2	3.8192287130312
8	84	8.3	0.973
8	85	8.4	4.9896392768023
8	86	8.5	0.973
8	87	8.6	3.2116257252267
8	88	8.7	2.8822162993739
8	89	8.8	0.973
8	90	8.9	2.2705069044256
8	91	9	3.8308782287708
8	92	9.1	2.0735985700595
8	93	9.2	0.973
8	94	9.3	2.8376475775941
8	95	9.4	1.3397800903168
8	96	9.5	0.973
8	97	9.6	0.973
8	98	9.7	2.6721583083952
8	99	9.8	1.7699536569376
8	100	9.9	4.1362624045135
8	101	10	0.973
8	102	10.1	0.973
8	103	10.2	0.973
8	104	10.3	0.973
8	105	10.4	0.973
8	106	10.5	0.973
8	107	10.6	0.973
8	108	10.7	0.973
8	109	10.8	0.973
8	110	10.9	0.973
8	111	11	0.973
8	112	11.1	0.973
8	113	11.2	0.973
8	114	11.3	0.973
8	115	11.4	0.973
8	116	11.5	0.973
8	117	11.6	0.973
8	118	11.7	0.973
8	119	11.8	0.973
8	120	11.9	0.973
8	121	12	0.973
8	122	12.1	0.973
8	123	12.2	0.973
8	124	12.3	0.973
8	125	12.4	0.973
8	126	12.5	0.973
8	127	12.6	0.973
8	128	12.7	0.973
8	129	12.8	0.973
8	130	12.9	0.973
8	131	13	0.973
8	132	13.1	0.973
8	133	13.2	0.973
8	134	13.3	0.973
8	135	13.4	0.973
8	136	13.5	0.973
8	137	13.6	3.5735574093087
8	138	13.7	3.7500424838715
8	139	13.8	3.9266738352852
8	140	13.9	4.1034612054572
8	141	14	4.2804143362946
8	142	14.1	4.4575429697045
8	143	14.2	4.6348568475942
8	144	14.3	4.8123657118707
8	145	14.4	4.9900793044413
8	146	14.5	3.8570439909308
8	147	14.6	3.9658166612094
8	148	14.7	4.9321216693566
8	149	14.8	4.746637985347
8	150	14.9	4.5696051347275
8	151	15	5.2216510129458
8	152	15.1	4.4214073361883
8	153	15.2	4.2489042048499
8	154	15.3	5.4585271853975
8	155	15.4	4.6050085823935
8	156	15.5	4.8474587574368
8	157	15.6	4.5203652490089
8	158	15.7	5.9819080005712
8	159	15.8	5.6131830759796
8	160	15.9	6.5511640891088
8	161	16	7.0908903175858
8	162	16.1	6.7157379063457
8	163	16.2	7.3807846395105
8	164	16.3	5.6087545858803
8	165	16.4	7.7880890112275
8	166	16.5	5.7357624026778
8	167	16.6	6.2165560631356
8	168	16.7	7.5164231263597
8	169	16.8	6.7326702205247
8	170	16.9	6.0964562366966
8	171	17	7.981273887304
8	172	17.1	5.7457965389222
8	173	17.2	6.202061885998
8	174	17.3	7.5371876127656
8	175	17.4	7.6928493572579
8	176	17.5	7.7960277624751
8	177	17.6	6.4398105311437
8	178	17.7	8.0365249061328
8	179	17.8	6.0681766278845
8	180	17.9	6.9306994043177
8	181	18	9.3762185666796
8	182	18.1	7.3527644615935
8	183	18.2	6.7810181465907
8	184	18.3	9.82520242459
8	185	18.4	8.568514074897
8	186	18.5	9.4567343017326
8	187	18.6	3.772814371066
8	188	18.7	0.973
8	189	18.8	5.3680948288379
8	190	18.9	0.973
8	191	19	1.9796426442958
8	192	19.1	0.973
8	193	19.2	3.7649097958479
8	194	19.3	3.2342043860393
8	195	19.4	2.5370470023251
8	196	19.5	0.973
8	197	19.6	0.973
8	198	19.7	2.7858082982705
8	199	19.8	1.8806459786383
8	200	19.9	4.1892888634077
8	201	20	0.973
8	202	20.1	3.3273489879395
8	203	20.2	0.973
8	204	20.3	2.8083311032441
8	205	20.4	0.973
8	206	20.5	3.8701196018204
8	207	20.6	3.9055126662748
8	208	20.7	2.2167231120935
8	209	20.8	2.1267615853112
8	210	20.9	1.8745016987642
8	211	21	0.973
8	212	21.1	0.973
8	213	21.2	0.973
8	214	21.3	0.973
8	215	21.4	0.973
8	216	21.5	0.973
8	217	21.6	0.973
8	218	21.7	0.973
8	219	21.8	0.973
8	220	21.9	0.973
8	221	22	0.973
8	222	22.1	0.973
8	223	22.2	0.973
8	224	22.3	0.973
8	225	22.4	0.973
8	226	22.5	0.973
8	227	22.6	0.973
8	228	22.7	0.973
8	229	22.8	0.973
8	230	22.9	0.973
8	231	23	0.973
8	232	23.1	0.973
8	233	23.2	0.973
8	234	23.3	0.973
8	235	23.4	0.973
8	236	23.5	0.973
8	237	23.6	0.973
8	238	23.7	0.973
8	239	23.8	0.973
8	240	23.9	0.973
8	241	24	0.973
8	242	24.1	0.973
8	243	24.2	0.973
8	244	24.3	0.973
8	245	24.4	0.973
8	246	24.5	0.973
8	247	24.6	3.6240893109914
8	248	24.7	3.8006152845237
8	249	24.8	3.9772903250419
8	250	24.9	4.1541241744533
8	251	25	4.3311265746651
8	252	25.1	4.5083072675844
8	253	25.2	4.6856759951183
8	254	25.3	4.8632424991741
8	255	25.4	5.0410165216589
8	256	25.5	3.8859149192882
8	257	25.6	4.8522949201943
8	258	25.7	4.5889825125131
8	259	25.8	4.3613735727495
8	260	25.9	4.7665186718711
8	261	26	3.8863474238154
8	262	26.1	4.2288138443319
8	263	26.2	4.0547633818732
8	264	26.3	4.7855603242303
8	265	26.4	5.3447560740367
8	266	26.5	4.2105475839239
8	267	26.6	5.9521117542016
8	268	26.7	5.4794975640117
8	269	26.8	4.5562149503915
8	270	26.9	6.8150424461882
8	271	27	6.0671182779949
8	272	27.1	4.9167537301483
8	273	27.2	6.2074298318165
8	274	27.3	7.2191883226358
8	275	27.4	7.4029662412396
8	276	27.5	6.2315306477114
8	277	27.6	5.3135756322439
8	278	27.7	7.4083525223848
8	279	27.8	5.4366569957971
8	280	27.9	7.8819571607796
8	281	28	5.8637898573298
8	282	28.1	7.300168473967
8	283	28.2	7.1956609415836
8	284	28.3	8.2428881276577
8	285	28.4	8.2730115017943
8	286	28.5	8.6600607501145
8	287	28.6	6.3742753388212
8	288	28.7	6.7595762358298
8	289	28.8	7.4215966634988
8	290	28.9	6.7221375290765
8	291	29	7.1594565533866
8	292	29.1	7.0981869224596
8	293	29.2	6.6705148011106
8	294	29.3	7.2322677423476
8	295	29.4	8.6806146629715
8	296	29.5	7.2213268246598
8	297	29.6	9.704010775064
8	298	29.7	5.2051598044382
8	299	29.8	2.2527785912388
8	300	29.9	3.8779324726601
8	301	30	0.973
8	302	30.1	4.0563165424524
8	303	30.2	2.4974147815801
8	304	30.3	2.6234386093264
8	305	30.4	0.973
8	306	30.5	0.973
8	307	30.6	5.9481304986441
8	308	30.7	0.973
8	309	30.8	1.22943389264
8	310	30.9	1.2449607330017
8	311	31	2.306543854533
8	312	31.1	2.3682685624403
8	313	31.2	3.7272252321311
8	314	31.3	3.3504652801419
8	315	31.4	0.973
8	316	31.5	3.7946588212991
8	317	31.6	2.5978908169034
8	318	31.7	3.1205944417295
8	319	31.8	0.973
8	320	31.9	4.900131742039
8	321	32	1.5422295165011
8	322	32.1	0.973
8	323	32.2	4.7365360471292
8	324	32.3	1.2892134415373
8	325	32.4	2.4438162566846
8	326	32.5	2.081470272681
8	327	32.6	0.973
8	328	32.7	2.6073115496339
8	329	32.8	0.973
8	330	32.9	2.5080033727809
8	331	33	3.0691083272925
8	332	33.1	2.8069630944739
8	333	33.2	3.4228742932049
8	334	33.3	2.4229642860123
8	335	33.4	1.9481205210849
8	336	33.5	0.973
8	337	33.6	0.973
8	338	33.7	1.6137199384644
8	339	33.8	5.4581182051791
8	340	33.9	1.1724425509851
8	341	34	0.973
8	342	34.1	0.973
8	343	34.2	4.2901252969638
8	344	34.3	2.1807892580674
8	345	34.4	0.973
8	346	34.5	5.4500336096567
8	347	34.6	0.973
8	348	34.7	1.6077071836274
8	349	34.8	4.2164149685244
8	350	34.9	0.973
8	351	35	2.6324454217777
8	352	35.1	3.7361960928487
8	353	35.2	2.8030554132891
8	354	35.3	0.973
8	355	35.4	2.7287698073391
8	356	35.5	1.4507132293964
8	357	35.6	4.7738799021828
8	358	35.7	3.0331004570136
8	359	35.8	2.3799921965629
8	360	35.9	0.973
8	361	36	0.973
8	362	36.1	1.1439859085481
8	363	36.2	2.4422554546711
8	364	36.3	1.6221075207514
8	365	36.4	1.4580984178586
8	366	36.5	3.2543421532531
8	367	36.6	0.973
8	368	36.7	2.7624488986526
8	369	36.8	2.6693405788011
8	370	36.9	2.5239614729003
8	371	37	0.973
8	372	37.1	2.27340611427
8	373	37.2	3.8871342971372
8	374	37.3	0.973
8	375	37.4	0.973
8	376	37.5	5.5850668294176
8	377	37.6	0.973
8	378	37.7	5.3842168906133
8	379	37.8	0.973
8	380	37.9	3.5413747818586
8	381	38	0.973
8	382	38.1	1.6965337062786
8	383	38.2	1.9533337411185
8	384	38.3	3.3150421268234
8	385	38.4	1.3773243841751
8	386	38.5	1.6917259843089
8	387	38.6	4.5051012118678
8	388	38.7	1.0678052002357
8	389	38.8	0.973
8	390	38.9	6.1369874165672
8	391	39	0.973
8	392	39.1	0.973
8	393	39.2	2.6548912224364
8	394	39.3	2.2658802838798
8	395	39.4	2.0921093163573
8	396	39.5	1.796956524847
8	397	39.6	0.973
8	398	39.7	1.9185893990171
8	399	39.8	3.1984403677914
8	400	39.9	1.8499864723631
8	401	40	1.7454590802006
8	402	40.1	4.0225528450589
8	403	40.2	1.6959078639418
8	404	40.3	0.973
8	405	40.4	4.9582513850192
8	406	40.5	0.973
8	407	40.6	3.0350899324897
8	408	40.7	2.8943142928736
8	409	40.8	3.9506625639666
8	410	40.9	0.973
8	411	41	2.7376558250438
8	412	41.1	0.973
8	413	41.2	4.0043333622608
8	414	41.3	0.973
8	415	41.4	4.9733704029949
8	416	41.5	2.1813089541052
8	417	41.6	0.973
8	418	41.7	3.8902297432169
8	419	41.8	0.973
8	420	41.9	2.3685248484644
8	421	42	3.9751414886821
8	422	42.1	2.5093000406688
8	423	42.2	1.9087092704988
8	424	42.3	3.6189241179591
8	425	42.4	0.973
8	426	42.5	3.1098121407064
8	427	42.6	1.2333522427086
8	428	42.7	5.0193728680429
8	429	42.8	0.973
8	430	42.9	4.9801829360184
8	431	43	2.1773333598691
8	432	43.1	0.973
8	433	43.2	3.5404868801285
8	434	43.3	2.2144952700524
8	435	43.4	0.973
8	436	43.5	3.24388851274
8	437	43.6	3.0581384960765
8	438	43.7	0.973
8	439	43.8	0.973
8	440	43.9	4.3197355211678
8	441	44	2.7958508098999
8	442	44.1	0.973
8	443	44.2	5.7462887762617
8	444	44.3	0.973
8	445	44.4	2.2978526666702
8	446	44.5	2.2932614987354
8	447	44.6	1.658011434511
8	448	44.7	2.5082841733534
8	449	44.8	4.2281066850446
8	450	44.9	0.973
8	451	45	5.6133701139905
8	452	45.1	0.973
8	453	45.2	2.4544940059293
8	454	45.3	4.383015059167
8	455	45.4	1.5724180828082
8	456	45.5	1.4084601074193
8	457	45.6	2.266061409518
8	458	45.7	0.973
8	459	45.8	3.494183735157
8	460	45.9	3.6312647670041
8	461	46	0.973
8	462	46.1	3.6711118025107
8	463	46.2	2.5343539857339
8	464	46.3	1.4932010189952
8	465	46.4	1.4204079460879
8	466	46.5	0.973
8	467	46.6	2.106712298226
8	468	46.7	2.6709084783766
8	469	46.8	0.973
8	470	46.9	1.7703134654825
8	471	47	2.0333999139546
8	472	47.1	1.7847760751074
8	473	47.2	4.5869233420853
8	474	47.3	2.1284129429604
8	475	47.4	0.973
8	476	47.5	3.3169827103074
8	477	47.6	3.7054289316798
8	478	47.7	0.973
8	479	47.8	4.1111862526977
8	480	47.9	2.4609688832806
8	481	48	0.973
8	482	48.1	1.421799908603
8	483	48.2	1.92229151649
8	484	48.3	4.4017194755139
8	485	48.4	2.3057523238571
8	486	48.5	0.973
8	487	48.6	1.8174218518474
8	488	48.7	1.827269014614
8	489	48.8	3.2636555772798
8	490	48.9	3.0328990953178
8	491	49	2.7859241757133
8	492	49.1	1.2144675293184
8	493	49.2	0.973
8	494	49.3	3.7465467917023
8	495	49.4	2.0215805429876
8	496	49.5	0.973
8	497	49.6	2.3900994006646
8	498	49.7	3.299447007438
8	499	49.8	4.3210746852506
8	500	49.9	0.973
8	501	50	5.5880910405393
8	502	50.1	0.973
8	503	50.2	6.015561875196
8	504	50.3	0.973
8	505	50.4	5.9529299016053
8	506	50.5	0.973
8	507	50.6	4.3433833050565
8	508	50.7	3.4442241133512
8	509	50.8	0.973
8	510	50.9	4.4245147870342
8	511	51	2.2071006227385
8	512	51.1	0.973
8	513	51.2	3.1140840332376
8	514	51.3	0.973
8	515	51.4	3.6660612321498
8	516	51.5	1.9325547710477
8	517	51.6	0.973
8	518	51.7	1.1451699528702
8	519	51.8	2.2830657540132
8	520	51.9	4.2020825980685
8	521	52	2.1248694542073
8	522	52.1	1.5754992792468
8	523	52.2	0.973
8	524	52.3	3.2749054517548
8	525	52.4	3.7490415030168
8	526	52.5	0.973
8	527	52.6	3.0416260637878
8	528	52.7	0.973
8	529	52.8	5.3610566173212
8	530	52.9	1.3211188801505
8	531	53	3.2957531074489
8	532	53.1	0.973
8	533	53.2	3.9838381018678
8	534	53.3	0.973
8	535	53.4	3.1209487771397
8	536	53.5	0.973
8	537	53.6	3.1951076962362
8	538	53.7	2.33827807834
8	539	53.8	1.5104266336491
8	540	53.9	3.8008846687367
8	541	54	0.973
8	542	54.1	3.2621714254604
8	543	54.2	4.0973290697499
8	544	54.3	0.973
8	545	54.4	1.3901069584679
8	546	54.5	2.0969007359394
8	547	54.6	3.4059964178531
8	548	54.7	0.973
8	549	54.8	5.647000296098
8	550	54.9	0.973
8	551	55	0.973
8	552	55.1	3.4518604598357
8	553	55.2	3.067170809538
8	554	55.3	3.3483410886967
8	555	55.4	0.973
8	556	55.5	2.6265145570326
8	557	55.6	2.2432074805498
8	558	55.7	1.8899578245337
8	559	55.8	3.4670986202153
8	560	55.9	1.1482189910082
8	561	56	0.973
8	562	56.1	1.3536018018715
8	563	56.2	2.1315825350981
8	564	56.3	4.2914430743723
8	565	56.4	0.973
8	566	56.5	5.7052286571814
8	567	56.6	0.973
8	568	56.7	5.0483829527489
8	569	56.8	0.973
8	570	56.9	2.6890225921651
8	571	57	3.4190361495398
8	572	57.1	2.0223165931192
8	573	57.2	3.9884439337328
8	574	57.3	0.973
8	575	57.4	1.5601932470641
8	576	57.5	3.2355296716412
8	577	57.6	1.123453993917
8	578	57.7	1.611322276986
8	579	57.8	0.973
8	580	57.9	3.4494140231516
8	581	58	0.973
8	582	58.1	2.5594181699238
8	583	58.2	4.2663922519675
8	584	58.3	0.973
8	585	58.4	1.4966994039572
8	586	58.5	3.8735300353562
8	587	58.6	0.973
8	588	58.7	5.4278872152382
8	589	58.8	2.352793646809
8	590	58.9	0.973
8	591	59	1.4003637408426
8	592	59.1	2.2140595539035
8	593	59.2	4.6505591575275
8	594	59.3	2.9069613100613
8	595	59.4	0.973
8	596	59.5	0.973
8	597	59.6	4.157720103617
8	598	59.7	3.7307117047991
8	599	59.8	1.736520305204
8	600	59.9	0.973
8	601	60	5.4828767317961
8	602	60.1	2.3280545613935
8	603	60.2	0.973
8	604	60.3	0.973
8	605	60.4	3.8880373443472
8	606	60.5	0.973
8	607	60.6	2.4152339280052
8	608	60.7	2.919781536117
8	609	60.8	0.973
8	610	60.9	3.665986404703
8	611	61	0.973
8	612	61.1	3.4562306026492
8	613	61.2	3.4252811650201
8	614	61.3	0.973
8	615	61.4	3.625541911509
8	616	61.5	2.20055113411
8	617	61.6	3.0322696391135
8	618	61.7	0.973
8	619	61.8	2.9562547024896
8	620	61.9	0.973
8	621	62	3.2852597740846
8	622	62.1	3.0816217292159
8	623	62.2	0.973
8	624	62.3	3.2988598268398
8	625	62.4	1.5971618633728
8	626	62.5	1.3177684055775
8	627	62.6	1.6367496581577
8	628	62.7	3.2931469494419
8	629	62.8	3.1082490104045
8	630	62.9	0.973
8	631	63	2.5536956764925
8	632	63.1	0.973
8	633	63.2	2.9810433106886
8	634	63.3	4.6117107191328
8	635	63.4	0.973
8	636	63.5	2.7020648922206
8	637	63.6	1.0930300664521
8	638	63.7	3.45773961572
8	639	63.8	0.973
8	640	63.9	3.376465345503
8	641	64	0.973
8	642	64.1	4.3097202048699
8	643	64.2	2.2878716166845
8	644	64.3	0.973
8	645	64.4	2.352844429688
8	646	64.5	3.4085794151181
8	647	64.6	0.973
8	648	64.7	1.173010110525
8	649	64.8	2.5069573830889
8	650	64.9	2.5879784390256
8	651	65	1.3682551118071
8	652	65.1	4.2088234207004
8	653	65.2	1.9211259367054
8	654	65.3	0.973
8	655	65.4	4.4674314964931
8	656	65.5	0.973
8	657	65.6	1.7592883390785
8	658	65.7	5.3027898816265
8	659	65.8	0.973
8	660	65.9	2.4918461962993
8	661	66	4.275635800688
8	662	66.1	1.1932612778986
8	663	66.2	4.2951146678553
8	664	66.3	1.143254705712
8	665	66.4	1.2810477308082
8	666	66.5	1.2855991670908
8	667	66.6	3.5733406040111
8	668	66.7	0.973
8	669	66.8	4.6353131788495
8	670	66.9	1.2038002989481
8	671	67	2.7160430252836
8	672	67.1	0.973
8	673	67.2	3.5624646150673
8	674	67.3	2.6030582240487
8	675	67.4	2.4616601309425
8	676	67.5	0.973
8	677	67.6	2.4151527967415
8	678	67.7	2.1979152418514
8	679	67.8	0.973
8	680	67.9	4.9076477244418
8	681	68	0.973
8	682	68.1	2.9637331851572
8	683	68.2	0.973
8	684	68.3	2.2398985849153
8	685	68.4	2.1707831464018
8	686	68.5	5.0098415847731
8	687	68.6	2.5874691268971
8	688	68.7	0.973
8	689	68.8	2.9264368664477
8	690	68.9	0.973
8	691	69	4.5889862533764
8	692	69.1	0.973
8	693	69.2	2.4161439207759
8	694	69.3	1.6548183391965
8	695	69.4	3.2103091052073
8	696	69.5	2.5779146346342
8	697	69.6	0.973
8	698	69.7	3.5031574943481
8	699	69.8	0.973
8	700	69.9	4.0696263302919
8	701	70	3.4247454433566
8	702	70.1	0.973
8	703	70.2	1.314643237055
8	704	70.3	3.2496633746313
8	705	70.4	0.973
8	706	70.5	3.5373810798521
8	707	70.6	3.2629321293554
8	708	70.7	0.973
8	709	70.8	5.8791355933038
8	710	70.9	0.973
8	711	71	3.8663229219195
8	712	71.1	0.973
8	713	71.2	5.8383184029987
8	714	71.3	0.973
8	715	71.4	2.8559886886256
8	716	71.5	2.7904592745074
8	717	71.6	0.973
8	718	71.7	5.4400729019635
8	719	71.8	1.2770628565037
8	720	71.9	2.881628237636
8	721	72	2.2396575827485
8	722	72.1	0.973
8	723	72.2	2.6284092957044
8	724	72.3	0.973
8	725	72.4	4.8784372784261
8	726	72.5	1.2475198697049
8	727	72.6	0.973
8	728	72.7	2.1857669356183
8	729	72.8	2.6222402586849
8	730	72.9	1.2431828507983
8	731	73	2.3177110260232
8	732	73.1	2.6496487358516
8	733	73.2	4.1470969386714
8	734	73.3	1.6659839076983
8	735	73.4	2.2307534176309
8	736	73.5	0.973
8	737	73.6	4.2573370897337
8	738	73.7	2.3697592138415
8	739	73.8	0.973
8	740	73.9	2.4942597513025
8	741	74	1.3735222453565
8	742	74.1	3.0592010106654
8	743	74.2	0.973
8	744	74.3	5.9646397469119
8	745	74.4	1.6331894008231
8	746	74.5	0.973
8	747	74.6	5.0019625190159
8	748	74.7	0.973
8	749	74.8	1.7358108063879
8	750	74.9	1.8131699078374
8	751	75	0.973
8	753	75.1	0.973
8	754	75.2	0.973
8	755	75.3	0.973
8	756	75.4	0.973
8	757	75.5	0.973
8	758	75.6	0.973
8	759	75.7	0.973
8	760	75.8	0.973
8	761	75.9	0.973
8	762	76	0.973
8	763	76.1	0.973
8	764	76.2	0.973
8	765	76.3	0.973
8	766	76.4	0.973
8	767	76.5	0.973
8	768	76.6	0.973
8	769	76.7	0.973
8	770	76.8	0.973
8	771	76.9	0.973
8	772	77	0.973
8	773	77.1	0.973
8	774	77.2	0.973
8	775	77.3	0.973
8	776	77.4	0.973
8	777	77.5	0.973
8	778	77.6	0.973
8	779	77.7	0.973
8	780	77.8	0.973
8	781	77.9	0.973
8	782	78	0.973
8	783	78.1	0.973
8	784	78.2	0.973
8	785	78.3	0.973
8	786	78.4	0.973
8	787	78.5	0.973
8	788	78.6	0.973
8	789	78.7	0.973
8	790	78.8	0.973
8	791	78.9	0.973
8	792	79	0.973
8	793	79.1	0.973
8	794	79.2	0.973
8	795	79.3	0.973
8	796	79.4	0.973
8	797	79.5	0.973
8	798	79.6	0.973
8	799	79.7	0.973
8	800	79.8	0.973
8	801	79.9	0.973
8	802	80	0.973
8	803	80.1	0.973
8	804	80.2	0.973
8	805	80.3	0.973
8	806	80.4	0.973
8	807	80.5	0.973
8	808	80.6	0.973
8	809	80.7	0.973
8	810	80.8	0.973
8	811	80.9	0.973
8	812	81	0.973
8	813	81.1	0.973
8	814	81.2	0.973
8	815	81.3	0.973
8	816	81.4	0.973
8	817	81.5	0.973
8	818	81.6	0.973
8	819	81.7	0.973
8	820	81.8	0.973
8	821	81.9	0.973
8	822	82	0.973
8	823	82.1	0.973
8	824	82.2	0.973
8	825	82.3	0.973
8	826	82.4	0.973
8	827	82.5	0.973
8	828	82.6	0.973
8	829	82.7	0.973
8	830	82.8	0.973
8	831	82.9	0.973
8	832	83	0.973
8	833	83.1	0.973
8	834	83.2	0.973
8	835	83.3	0.973
8	836	83.4	0.973
8	837	83.5	0.973
8	838	83.6	0.973
8	839	83.7	0.973
8	840	83.8	0.973
8	841	83.9	0.973
8	842	84	0.973
8	843	84.1	0.973
8	844	84.2	0.973
8	845	84.3	0.973
8	846	84.4	0.973
8	847	84.5	0.973
8	848	84.6	0.973
8	849	84.7	0.973
8	850	84.8	0.973
8	851	84.9	0.973
8	852	85	0.973
8	853	85.1	0.973
8	854	85.2	0.973
8	855	85.3	0.973
8	856	85.4	0.973
8	857	85.5	0.973
8	858	85.6	0.973
8	859	85.7	0.973
8	860	85.8	0.973
8	861	85.9	0.973
8	862	86	0.973
8	863	86.1	0.973
8	864	86.2	0.973
8	865	86.3	0.973
8	866	86.4	0.973
8	867	86.5	0.973
8	868	86.6	0.973
8	869	86.7	0.973
8	870	86.8	0.973