file 9055751 1407196034                                         
version 2
run General-0-20140804-06:07:38-21012
attr configname General
attr datetime 20140804-06:07:38
attr experiment General
attr inifile omnetpp.ini
attr iterationvars ""
attr iterationvars2 $repetition=0
attr measurement ""
attr network RSUVehicleScenario
attr processid 21012
attr repetition 0
attr replication #0
attr resultdir results
attr runnumber 0
attr seedset 0

vector 4  RSUVehicleScenario.node[0].veinsmobility  posx  ETV
vector 5  RSUVehicleScenario.node[0].veinsmobility  posy  ETV
vector 6  RSUVehicleScenario.node[0].veinsmobility  speed  ETV
vector 7  RSUVehicleScenario.node[0].veinsmobility  acceleration  ETV
vector 8  RSUVehicleScenario.node[0].veinsmobility  co2emission  ETV
vector 11  RSUVehicleScenario.node[1].veinsmobility  posx  ETV
vector 12  RSUVehicleScenario.node[1].veinsmobility  posy  ETV
vector 13  RSUVehicleScenario.node[1].veinsmobility  speed  ETV
vector 14  RSUVehicleScenario.node[1].veinsmobility  acceleration  ETV
vector 15  RSUVehicleScenario.node[1].veinsmobility  co2emission  ETV
vector 18  RSUVehicleScenario.node[2].veinsmobility  posx  ETV
vector 19  RSUVehicleScenario.node[2].veinsmobility  posy  ETV
vector 20  RSUVehicleScenario.node[2].veinsmobility  speed  ETV
vector 21  RSUVehicleScenario.node[2].veinsmobility  acceleration  ETV
vector 22  RSUVehicleScenario.node[2].veinsmobility  co2emission  ETV
vector 25  RSUVehicleScenario.node[3].veinsmobility  posx  ETV
vector 26  RSUVehicleScenario.node[3].veinsmobility  posy  ETV
vector 27  RSUVehicleScenario.node[3].veinsmobility  speed  ETV
vector 28  RSUVehicleScenario.node[3].veinsmobility  acceleration  ETV
vector 29  RSUVehicleScenario.node[3].veinsmobility  co2emission  ETV
vector 32  RSUVehicleScenario.node[4].veinsmobility  posx  ETV
vector 33  RSUVehicleScenario.node[4].veinsmobility  posy  ETV
vector 34  RSUVehicleScenario.node[4].veinsmobility  speed  ETV
vector 35  RSUVehicleScenario.node[4].veinsmobility  acceleration  ETV
vector 36  RSUVehicleScenario.node[4].veinsmobility  co2emission  ETV
vector 39  RSUVehicleScenario.node[5].veinsmobility  posx  ETV
vector 40  RSUVehicleScenario.node[5].veinsmobility  posy  ETV
vector 41  RSUVehicleScenario.node[5].veinsmobility  speed  ETV
vector 42  RSUVehicleScenario.node[5].veinsmobility  acceleration  ETV
vector 43  RSUVehicleScenario.node[5].veinsmobility  co2emission  ETV
vector 46  RSUVehicleScenario.node[6].veinsmobility  posx  ETV
vector 47  RSUVehicleScenario.node[6].veinsmobility  posy  ETV
vector 48  RSUVehicleScenario.node[6].veinsmobility  speed  ETV
vector 49  RSUVehicleScenario.node[6].veinsmobility  acceleration  ETV
vector 50  RSUVehicleScenario.node[6].veinsmobility  co2emission  ETV
vector 53  RSUVehicleScenario.node[7].veinsmobility  posx  ETV
vector 54  RSUVehicleScenario.node[7].veinsmobility  posy  ETV
vector 55  RSUVehicleScenario.node[7].veinsmobility  speed  ETV
vector 56  RSUVehicleScenario.node[7].veinsmobility  acceleration  ETV
vector 57  RSUVehicleScenario.node[7].veinsmobility  co2emission  ETV
vector 60  RSUVehicleScenario.node[8].veinsmobility  posx  ETV
vector 61  RSUVehicleScenario.node[8].veinsmobility  posy  ETV
vector 62  RSUVehicleScenario.node[8].veinsmobility  speed  ETV
vector 63  RSUVehicleScenario.node[8].veinsmobility  acceleration  ETV
vector 64  RSUVehicleScenario.node[8].veinsmobility  co2emission  ETV
vector 67  RSUVehicleScenario.node[9].veinsmobility  posx  ETV
vector 68  RSUVehicleScenario.node[9].veinsmobility  posy  ETV
vector 69  RSUVehicleScenario.node[9].veinsmobility  speed  ETV
vector 70  RSUVehicleScenario.node[9].veinsmobility  acceleration  ETV
vector 71  RSUVehicleScenario.node[9].veinsmobility  co2emission  ETV
vector 74  RSUVehicleScenario.node[10].veinsmobility  posx  ETV
vector 75  RSUVehicleScenario.node[10].veinsmobility  posy  ETV
vector 76  RSUVehicleScenario.node[10].veinsmobility  speed  ETV
vector 77  RSUVehicleScenario.node[10].veinsmobility  acceleration  ETV
vector 78  RSUVehicleScenario.node[10].veinsmobility  co2emission  ETV
vector 81  RSUVehicleScenario.node[11].veinsmobility  posx  ETV
vector 82  RSUVehicleScenario.node[11].veinsmobility  posy  ETV
vector 83  RSUVehicleScenario.node[11].veinsmobility  speed  ETV
vector 84  RSUVehicleScenario.node[11].veinsmobility  acceleration  ETV
vector 85  RSUVehicleScenario.node[11].veinsmobility  co2emission  ETV
vector 88  RSUVehicleScenario.node[12].veinsmobility  posx  ETV
vector 89  RSUVehicleScenario.node[12].veinsmobility  posy  ETV
vector 90  RSUVehicleScenario.node[12].veinsmobility  speed  ETV
vector 91  RSUVehicleScenario.node[12].veinsmobility  acceleration  ETV
vector 92  RSUVehicleScenario.node[12].veinsmobility  co2emission  ETV
vector 95  RSUVehicleScenario.node[13].veinsmobility  posx  ETV
vector 96  RSUVehicleScenario.node[13].veinsmobility  posy  ETV
vector 97  RSUVehicleScenario.node[13].veinsmobility  speed  ETV
vector 98  RSUVehicleScenario.node[13].veinsmobility  acceleration  ETV
vector 99  RSUVehicleScenario.node[13].veinsmobility  co2emission  ETV
vector 102  RSUVehicleScenario.node[14].veinsmobility  posx  ETV
vector 103  RSUVehicleScenario.node[14].veinsmobility  posy  ETV
vector 104  RSUVehicleScenario.node[14].veinsmobility  speed  ETV
vector 105  RSUVehicleScenario.node[14].veinsmobility  acceleration  ETV
vector 106  RSUVehicleScenario.node[14].veinsmobility  co2emission  ETV
vector 109  RSUVehicleScenario.node[15].veinsmobility  posx  ETV
vector 110  RSUVehicleScenario.node[15].veinsmobility  posy  ETV
vector 111  RSUVehicleScenario.node[15].veinsmobility  speed  ETV
vector 112  RSUVehicleScenario.node[15].veinsmobility  acceleration  ETV
vector 113  RSUVehicleScenario.node[15].veinsmobility  co2emission  ETV
vector 116  RSUVehicleScenario.node[16].veinsmobility  posx  ETV
vector 117  RSUVehicleScenario.node[16].veinsmobility  posy  ETV
vector 118  RSUVehicleScenario.node[16].veinsmobility  speed  ETV
vector 119  RSUVehicleScenario.node[16].veinsmobility  acceleration  ETV
vector 120  RSUVehicleScenario.node[16].veinsmobility  co2emission  ETV
vector 123  RSUVehicleScenario.node[17].veinsmobility  posx  ETV
vector 124  RSUVehicleScenario.node[17].veinsmobility  posy  ETV
vector 125  RSUVehicleScenario.node[17].veinsmobility  speed  ETV
vector 126  RSUVehicleScenario.node[17].veinsmobility  acceleration  ETV
vector 127  RSUVehicleScenario.node[17].veinsmobility  co2emission  ETV
vector 130  RSUVehicleScenario.node[18].veinsmobility  posx  ETV
vector 131  RSUVehicleScenario.node[18].veinsmobility  posy  ETV
vector 132  RSUVehicleScenario.node[18].veinsmobility  speed  ETV
vector 133  RSUVehicleScenario.node[18].veinsmobility  acceleration  ETV
vector 134  RSUVehicleScenario.node[18].veinsmobility  co2emission  ETV
vector 137  RSUVehicleScenario.node[19].veinsmobility  posx  ETV
vector 138  RSUVehicleScenario.node[19].veinsmobility  posy  ETV
vector 139  RSUVehicleScenario.node[19].veinsmobility  speed  ETV
vector 140  RSUVehicleScenario.node[19].veinsmobility  acceleration  ETV
vector 141  RSUVehicleScenario.node[19].veinsmobility  co2emission  ETV
vector 144  RSUVehicleScenario.node[20].veinsmobility  posx  ETV
vector 145  RSUVehicleScenario.node[20].veinsmobility  posy  ETV
vector 146  RSUVehicleScenario.node[20].veinsmobility  speed  ETV
vector 147  RSUVehicleScenario.node[20].veinsmobility  acceleration  ETV
vector 148  RSUVehicleScenario.node[20].veinsmobility  co2emission  ETV
vector 151  RSUVehicleScenario.node[21].veinsmobility  posx  ETV
vector 152  RSUVehicleScenario.node[21].veinsmobility  posy  ETV
vector 153  RSUVehicleScenario.node[21].veinsmobility  speed  ETV
vector 154  RSUVehicleScenario.node[21].veinsmobility  acceleration  ETV
vector 155  RSUVehicleScenario.node[21].veinsmobility  co2emission  ETV
vector 158  RSUVehicleScenario.node[22].veinsmobility  posx  ETV
vector 159  RSUVehicleScenario.node[22].veinsmobility  posy  ETV
vector 160  RSUVehicleScenario.node[22].veinsmobility  speed  ETV
vector 161  RSUVehicleScenario.node[22].veinsmobility  acceleration  ETV
vector 162  RSUVehicleScenario.node[22].veinsmobility  co2emission  ETV
vector 165  RSUVehicleScenario.node[23].veinsmobility  posx  ETV
vector 166  RSUVehicleScenario.node[23].veinsmobility  posy  ETV
vector 167  RSUVehicleScenario.node[23].veinsmobility  speed  ETV
vector 168  RSUVehicleScenario.node[23].veinsmobility  acceleration  ETV
vector 169  RSUVehicleScenario.node[23].veinsmobility  co2emission  ETV
vector 172  RSUVehicleScenario.node[24].veinsmobility  posx  ETV
vector 173  RSUVehicleScenario.node[24].veinsmobility  posy  ETV
vector 174  RSUVehicleScenario.node[24].veinsmobility  speed  ETV
vector 175  RSUVehicleScenario.node[24].veinsmobility  acceleration  ETV
vector 176  RSUVehicleScenario.node[24].veinsmobility  co2emission  ETV
vector 179  RSUVehicleScenario.node[25].veinsmobility  posx  ETV
vector 180  RSUVehicleScenario.node[25].veinsmobility  posy  ETV
vector 181  RSUVehicleScenario.node[25].veinsmobility  speed  ETV
vector 182  RSUVehicleScenario.node[25].veinsmobility  acceleration  ETV
vector 183  RSUVehicleScenario.node[25].veinsmobility  co2emission  ETV
vector 186  RSUVehicleScenario.node[26].veinsmobility  posx  ETV
vector 187  RSUVehicleScenario.node[26].veinsmobility  posy  ETV
vector 188  RSUVehicleScenario.node[26].veinsmobility  speed  ETV
vector 189  RSUVehicleScenario.node[26].veinsmobility  acceleration  ETV
vector 190  RSUVehicleScenario.node[26].veinsmobility  co2emission  ETV
vector 193  RSUVehicleScenario.node[27].veinsmobility  posx  ETV
vector 194  RSUVehicleScenario.node[27].veinsmobility  posy  ETV
vector 195  RSUVehicleScenario.node[27].veinsmobility  speed  ETV
vector 196  RSUVehicleScenario.node[27].veinsmobility  acceleration  ETV
vector 197  RSUVehicleScenario.node[27].veinsmobility  co2emission  ETV
vector 200  RSUVehicleScenario.node[28].veinsmobility  posx  ETV
vector 201  RSUVehicleScenario.node[28].veinsmobility  posy  ETV
vector 202  RSUVehicleScenario.node[28].veinsmobility  speed  ETV
vector 203  RSUVehicleScenario.node[28].veinsmobility  acceleration  ETV
vector 204  RSUVehicleScenario.node[28].veinsmobility  co2emission  ETV
vector 207  RSUVehicleScenario.node[29].veinsmobility  posx  ETV
vector 208  RSUVehicleScenario.node[29].veinsmobility  posy  ETV
vector 209  RSUVehicleScenario.node[29].veinsmobility  speed  ETV
vector 210  RSUVehicleScenario.node[29].veinsmobility  acceleration  ETV
vector 211  RSUVehicleScenario.node[29].veinsmobility  co2emission  ETV
vector 214  RSUVehicleScenario.node[30].veinsmobility  posx  ETV
vector 215  RSUVehicleScenario.node[30].veinsmobility  posy  ETV
vector 216  RSUVehicleScenario.node[30].veinsmobility  speed  ETV
vector 217  RSUVehicleScenario.node[30].veinsmobility  acceleration  ETV
vector 218  RSUVehicleScenario.node[30].veinsmobility  co2emission  ETV
vector 221  RSUVehicleScenario.node[31].veinsmobility  posx  ETV
vector 222  RSUVehicleScenario.node[31].veinsmobility  posy  ETV
vector 223  RSUVehicleScenario.node[31].veinsmobility  speed  ETV
vector 224  RSUVehicleScenario.node[31].veinsmobility  acceleration  ETV
vector 225  RSUVehicleScenario.node[31].veinsmobility  co2emission  ETV
vector 228  RSUVehicleScenario.node[32].veinsmobility  posx  ETV
vector 229  RSUVehicleScenario.node[32].veinsmobility  posy  ETV
vector 230  RSUVehicleScenario.node[32].veinsmobility  speed  ETV
vector 231  RSUVehicleScenario.node[32].veinsmobility  acceleration  ETV
vector 232  RSUVehicleScenario.node[32].veinsmobility  co2emission  ETV
vector 235  RSUVehicleScenario.node[33].veinsmobility  posx  ETV
vector 236  RSUVehicleScenario.node[33].veinsmobility  posy  ETV
vector 237  RSUVehicleScenario.node[33].veinsmobility  speed  ETV
vector 238  RSUVehicleScenario.node[33].veinsmobility  acceleration  ETV
vector 239  RSUVehicleScenario.node[33].veinsmobility  co2emission  ETV
vector 242  RSUVehicleScenario.node[34].veinsmobility  posx  ETV
vector 243  RSUVehicleScenario.node[34].veinsmobility  posy  ETV
vector 244  RSUVehicleScenario.node[34].veinsmobility  speed  ETV
vector 245  RSUVehicleScenario.node[34].veinsmobility  acceleration  ETV
vector 246  RSUVehicleScenario.node[34].veinsmobility  co2emission  ETV
vector 249  RSUVehicleScenario.node[35].veinsmobility  posx  ETV
vector 250  RSUVehicleScenario.node[35].veinsmobility  posy  ETV
vector 251  RSUVehicleScenario.node[35].veinsmobility  speed  ETV
vector 252  RSUVehicleScenario.node[35].veinsmobility  acceleration  ETV
vector 253  RSUVehicleScenario.node[35].veinsmobility  co2emission  ETV
vector 256  RSUVehicleScenario.node[36].veinsmobility  posx  ETV
vector 257  RSUVehicleScenario.node[36].veinsmobility  posy  ETV
vector 258  RSUVehicleScenario.node[36].veinsmobility  speed  ETV
vector 259  RSUVehicleScenario.node[36].veinsmobility  acceleration  ETV
vector 260  RSUVehicleScenario.node[36].veinsmobility  co2emission  ETV
vector 263  RSUVehicleScenario.node[37].veinsmobility  posx  ETV
vector 264  RSUVehicleScenario.node[37].veinsmobility  posy  ETV
vector 265  RSUVehicleScenario.node[37].veinsmobility  speed  ETV
vector 266  RSUVehicleScenario.node[37].veinsmobility  acceleration  ETV
vector 267  RSUVehicleScenario.node[37].veinsmobility  co2emission  ETV
vector 270  RSUVehicleScenario.node[38].veinsmobility  posx  ETV
vector 271  RSUVehicleScenario.node[38].veinsmobility  posy  ETV
vector 272  RSUVehicleScenario.node[38].veinsmobility  speed  ETV
vector 273  RSUVehicleScenario.node[38].veinsmobility  acceleration  ETV
vector 274  RSUVehicleScenario.node[38].veinsmobility  co2emission  ETV
vector 277  RSUVehicleScenario.node[39].veinsmobility  posx  ETV
vector 278  RSUVehicleScenario.node[39].veinsmobility  posy  ETV
vector 279  RSUVehicleScenario.node[39].veinsmobility  speed  ETV
vector 280  RSUVehicleScenario.node[39].veinsmobility  acceleration  ETV
vector 281  RSUVehicleScenario.node[39].veinsmobility  co2emission  ETV
vector 284  RSUVehicleScenario.node[40].veinsmobility  posx  ETV
vector 285  RSUVehicleScenario.node[40].veinsmobility  posy  ETV
vector 286  RSUVehicleScenario.node[40].veinsmobility  speed  ETV
vector 287  RSUVehicleScenario.node[40].veinsmobility  acceleration  ETV
vector 288  RSUVehicleScenario.node[40].veinsmobility  co2emission  ETV
vector 291  RSUVehicleScenario.node[41].veinsmobility  posx  ETV
vector 292  RSUVehicleScenario.node[41].veinsmobility  posy  ETV
vector 293  RSUVehicleScenario.node[41].veinsmobility  speed  ETV
vector 294  RSUVehicleScenario.node[41].veinsmobility  acceleration  ETV
vector 295  RSUVehicleScenario.node[41].veinsmobility  co2emission  ETV
vector 298  RSUVehicleScenario.node[42].veinsmobility  posx  ETV
vector 299  RSUVehicleScenario.node[42].veinsmobility  posy  ETV
vector 300  RSUVehicleScenario.node[42].veinsmobility  speed  ETV
vector 301  RSUVehicleScenario.node[42].veinsmobility  acceleration  ETV
vector 302  RSUVehicleScenario.node[42].veinsmobility  co2emission  ETV
vector 305  RSUVehicleScenario.node[43].veinsmobility  posx  ETV
vector 306  RSUVehicleScenario.node[43].veinsmobility  posy  ETV
vector 307  RSUVehicleScenario.node[43].veinsmobility  speed  ETV
vector 308  RSUVehicleScenario.node[43].veinsmobility  acceleration  ETV
vector 309  RSUVehicleScenario.node[43].veinsmobility  co2emission  ETV
vector 312  RSUVehicleScenario.node[44].veinsmobility  posx  ETV
vector 313  RSUVehicleScenario.node[44].veinsmobility  posy  ETV
vector 314  RSUVehicleScenario.node[44].veinsmobility  speed  ETV
vector 315  RSUVehicleScenario.node[44].veinsmobility  acceleration  ETV
vector 316  RSUVehicleScenario.node[44].veinsmobility  co2emission  ETV
vector 319  RSUVehicleScenario.node[45].veinsmobility  posx  ETV
vector 320  RSUVehicleScenario.node[45].veinsmobility  posy  ETV
vector 321  RSUVehicleScenario.node[45].veinsmobility  speed  ETV
vector 322  RSUVehicleScenario.node[45].veinsmobility  acceleration  ETV
vector 323  RSUVehicleScenario.node[45].veinsmobility  co2emission  ETV
vector 326  RSUVehicleScenario.node[46].veinsmobility  posx  ETV
vector 327  RSUVehicleScenario.node[46].veinsmobility  posy  ETV
vector 328  RSUVehicleScenario.node[46].veinsmobility  speed  ETV
vector 329  RSUVehicleScenario.node[46].veinsmobility  acceleration  ETV
vector 330  RSUVehicleScenario.node[46].veinsmobility  co2emission  ETV
vector 333  RSUVehicleScenario.node[47].veinsmobility  posx  ETV
vector 334  RSUVehicleScenario.node[47].veinsmobility  posy  ETV
vector 335  RSUVehicleScenario.node[47].veinsmobility  speed  ETV
vector 336  RSUVehicleScenario.node[47].veinsmobility  acceleration  ETV
vector 337  RSUVehicleScenario.node[47].veinsmobility  co2emission  ETV
vector 340  RSUVehicleScenario.node[48].veinsmobility  posx  ETV
vector 341  RSUVehicleScenario.node[48].veinsmobility  posy  ETV
vector 342  RSUVehicleScenario.node[48].veinsmobility  speed  ETV
vector 343  RSUVehicleScenario.node[48].veinsmobility  acceleration  ETV
vector 344  RSUVehicleScenario.node[48].veinsmobility  co2emission  ETV
vector 347  RSUVehicleScenario.node[49].veinsmobility  posx  ETV
vector 348  RSUVehicleScenario.node[49].veinsmobility  posy  ETV
vector 349  RSUVehicleScenario.node[49].veinsmobility  speed  ETV
vector 350  RSUVehicleScenario.node[49].veinsmobility  acceleration  ETV
vector 351  RSUVehicleScenario.node[49].veinsmobility  co2emission  ETV
vector 354  RSUVehicleScenario.node[50].veinsmobility  posx  ETV
vector 355  RSUVehicleScenario.node[50].veinsmobility  posy  ETV
vector 356  RSUVehicleScenario.node[50].veinsmobility  speed  ETV
vector 357  RSUVehicleScenario.node[50].veinsmobility  acceleration  ETV
vector 358  RSUVehicleScenario.node[50].veinsmobility  co2emission  ETV
vector 361  RSUVehicleScenario.node[51].veinsmobility  posx  ETV
vector 362  RSUVehicleScenario.node[51].veinsmobility  posy  ETV
vector 363  RSUVehicleScenario.node[51].veinsmobility  speed  ETV
vector 364  RSUVehicleScenario.node[51].veinsmobility  acceleration  ETV
vector 365  RSUVehicleScenario.node[51].veinsmobility  co2emission  ETV
vector 368  RSUVehicleScenario.node[52].veinsmobility  posx  ETV
vector 369  RSUVehicleScenario.node[52].veinsmobility  posy  ETV
vector 370  RSUVehicleScenario.node[52].veinsmobility  speed  ETV
vector 371  RSUVehicleScenario.node[52].veinsmobility  acceleration  ETV
vector 372  RSUVehicleScenario.node[52].veinsmobility  co2emission  ETV
vector 375  RSUVehicleScenario.node[53].veinsmobility  posx  ETV
vector 376  RSUVehicleScenario.node[53].veinsmobility  posy  ETV
vector 377  RSUVehicleScenario.node[53].veinsmobility  speed  ETV
vector 378  RSUVehicleScenario.node[53].veinsmobility  acceleration  ETV
vector 379  RSUVehicleScenario.node[53].veinsmobility  co2emission  ETV
vector 382  RSUVehicleScenario.node[54].veinsmobility  posx  ETV
vector 383  RSUVehicleScenario.node[54].veinsmobility  posy  ETV
vector 384  RSUVehicleScenario.node[54].veinsmobility  speed  ETV
vector 385  RSUVehicleScenario.node[54].veinsmobility  acceleration  ETV
vector 386  RSUVehicleScenario.node[54].veinsmobility  co2emission  ETV
vector 389  RSUVehicleScenario.node[55].veinsmobility  posx  ETV
vector 390  RSUVehicleScenario.node[55].veinsmobility  posy  ETV
vector 391  RSUVehicleScenario.node[55].veinsmobility  speed  ETV
vector 392  RSUVehicleScenario.node[55].veinsmobility  acceleration  ETV
vector 393  RSUVehicleScenario.node[55].veinsmobility  co2emission  ETV
vector 396  RSUVehicleScenario.node[56].veinsmobility  posx  ETV
vector 397  RSUVehicleScenario.node[56].veinsmobility  posy  ETV
vector 398  RSUVehicleScenario.node[56].veinsmobility  speed  ETV
vector 399  RSUVehicleScenario.node[56].veinsmobility  acceleration  ETV
vector 400  RSUVehicleScenario.node[56].veinsmobility  co2emission  ETV
vector 403  RSUVehicleScenario.node[57].veinsmobility  posx  ETV
vector 404  RSUVehicleScenario.node[57].veinsmobility  posy  ETV
vector 405  RSUVehicleScenario.node[57].veinsmobility  speed  ETV
vector 406  RSUVehicleScenario.node[57].veinsmobility  acceleration  ETV
vector 407  RSUVehicleScenario.node[57].veinsmobility  co2emission  ETV
vector 410  RSUVehicleScenario.node[58].veinsmobility  posx  ETV
vector 411  RSUVehicleScenario.node[58].veinsmobility  posy  ETV
vector 412  RSUVehicleScenario.node[58].veinsmobility  speed  ETV
vector 413  RSUVehicleScenario.node[58].veinsmobility  acceleration  ETV
vector 414  RSUVehicleScenario.node[58].veinsmobility  co2emission  ETV
vector 417  RSUVehicleScenario.node[59].veinsmobility  posx  ETV
vector 418  RSUVehicleScenario.node[59].veinsmobility  posy  ETV
vector 419  RSUVehicleScenario.node[59].veinsmobility  speed  ETV
vector 420  RSUVehicleScenario.node[59].veinsmobility  acceleration  ETV
vector 421  RSUVehicleScenario.node[59].veinsmobility  co2emission  ETV
vector 424  RSUVehicleScenario.node[60].veinsmobility  posx  ETV
vector 425  RSUVehicleScenario.node[60].veinsmobility  posy  ETV
vector 426  RSUVehicleScenario.node[60].veinsmobility  speed  ETV
vector 427  RSUVehicleScenario.node[60].veinsmobility  acceleration  ETV
vector 428  RSUVehicleScenario.node[60].veinsmobility  co2emission  ETV
vector 431  RSUVehicleScenario.node[61].veinsmobility  posx  ETV
vector 432  RSUVehicleScenario.node[61].veinsmobility  posy  ETV
vector 433  RSUVehicleScenario.node[61].veinsmobility  speed  ETV
vector 434  RSUVehicleScenario.node[61].veinsmobility  acceleration  ETV
vector 435  RSUVehicleScenario.node[61].veinsmobility  co2emission  ETV
vector 438  RSUVehicleScenario.node[62].veinsmobility  posx  ETV
vector 439  RSUVehicleScenario.node[62].veinsmobility  posy  ETV
vector 440  RSUVehicleScenario.node[62].veinsmobility  speed  ETV
vector 441  RSUVehicleScenario.node[62].veinsmobility  acceleration  ETV
vector 442  RSUVehicleScenario.node[62].veinsmobility  co2emission  ETV
vector 445  RSUVehicleScenario.node[63].veinsmobility  posx  ETV
vector 446  RSUVehicleScenario.node[63].veinsmobility  posy  ETV
vector 447  RSUVehicleScenario.node[63].veinsmobility  speed  ETV
vector 448  RSUVehicleScenario.node[63].veinsmobility  acceleration  ETV
vector 449  RSUVehicleScenario.node[63].veinsmobility  co2emission  ETV
8	22075 44960 4 9614 0.3 191.1 1909 0.973 9.82520242459 4727.0227408836 18030.188299176
7	67035 50375 4 9614 0.3 191.1 1909 -4.5 2.6 136.83559032092 2785.0337853763
6	117410 48986 3 9614 0.2 191.1 1910 0 13.999841648745 20521.146055524 272638.10187367
5	166396 52767 2 9614 0.1 191.1 1911 1364.8058299962 2120.9582023723 3507439.8388338 6544773014.9721
4	219163 52749 2 9614 0.1 191.1 1911 1313.9448685583 2450.6572874393 3968516.1453813 8448504534.646
15	271912 48311 34 9614 3.3 191.1 1879 0.973 10.488285577991 4653.113254766 17683.283206752
14	320223 56609 34 9614 3.3 191.1 1879 -4.0142019116481 2.6 137.18295373282 2427.2521386412
13	376832 54633 33 9614 3.2 191.1 1880 1.0781653552201e-10 13.999952244477 20230.244579253 266265.31071535
12	431465 53857 32 9614 3.1 191.1 1881 1369.810864348 2120.9517534953 3458047.3205827 6459495511.2209
11	485322 53891 32 9614 3.1 191.1 1881 1342.503926781 2450.6343626493 3923649.5780203 8380451813.7961
78	539213 39358 304 9614 30.3 191.1 1609 0.973 10.546108580738 4000.350948877 16325.915338532
77	578571 43615 304 9614 30.3 191.1 1609 -4.5 2.6 136.691890088 2709.017045514
76	622186 42499 303 9614 30.2 191.1 1610 0 13.999854134803 15580.154163026 199979.92637875
75	664685 46597 302 9614 30.1 191.1 1611 1578.0861504339 2120.9436727753 3099763.4503255 6018769996.3879
74	711282 46584 302 9614 30.1 191.1 1611 1709.3247820749 2450.6251043571 3565335.8812058 7959994428.9694
85	757866 40232 334 9614 33.3 191.1 1579 0.973 10.656991252585 3653.6518159131 13299.127816012
84	798098 47662 334 9614 33.3 191.1 1579 -4.5 2.6 39.735548682577 2244.8455064073
83	845760 46139 333 9614 33.2 191.1 1580 8.1119311415219e-06 14 14695.494390461 174135.67942924
82	891899 45748 332 9614 33.1 191.1 1581 1328.7023983486 2083.9230535114 2597683.3849314 4341804023.4766
81	937647 45746 332 9614 33.1 191.1 1581 2247.7313549952 2453.9059007241 3779164.4280934 9039155407.7084
92	983393 39456 364 9614 36.3 191.1 1549 0.973 10.37755868605 3765.573066607 14600.324094894
91	1022849 46467 364 9614 36.3 191.1 1549 -4.330505872285 2.6 47.894930374434 2740.0858406477
90	1069316 45150 363 9614 36.2 191.1 1550 0.00038144962730643 13.999936781079 14490.755505295 168855.34834929
89	1114466 44888 362 9614 36.1 191.1 1551 1344.3317808332 2084.0468950346 2581513.2875792 4370170173.7027
88	1159354 44887 362 9614 36.1 191.1 1551 2261.0822443716 2453.9335428481 3717545.2875925 8915146337.9747
99	1204241 38566 394 9614 39.3 191.1 1519 0.973 10.569320588321 3695.3077528317 14420.992290613
98	1242807 45537 394 9614 39.3 191.1 1519 -4.2398990372661 2.6 49.636725074947 2649.9397599441
97	1288344 44229 393 9614 39.2 191.1 1520 0.0019990150514281 13.999745033977 14385.566765 167689.86898629
96	1332573 44073 392 9614 39.1 191.1 1521 1352.3433973994 2084.0314064715 2542928.3799146 4322634394.3916
95	1376646 44034 392 9614 39.1 191.1 1521 2267.9259060846 2453.9383173748 3649341.9387198 8760124239.6434
106	1420680 39338 424 9614 42.3 191.1 1489 0.973 10.534724065816 3646.1514635472 14286.280595035
105	1460018 46112 424 9614 42.3 191.1 1489 -3.8312677695771 2.6 51.951068060287 2631.9382859493
104	1506130 44846 423 9614 42.2 191.1 1490 0.0086079961632212 13.999613604036 14278.517451291 166740.58011002
103	1550976 44712 422 9614 42.1 191.1 1491 1360.5001757964 2084.005131254 2502775.1708688 4269730777.7533
102	1595688 44719 422 9614 42.1 191.1 1491 2274.8935675489 2453.9068681399 3581039.2343674 8604670018.1419
113	1640407 38376 454 9614 45.3 191.1 1459 0.973 10.109833579188 3626.6586212178 14383.291026974
112	1678783 45133 454 9614 45.3 191.1 1459 -3.9528971440379 2.6 52.505683223306 2630.3005303108
111	1723916 43966 453 9614 45.2 191.1 1460 0.031367961849296 13.999774735647 14169.756677928 165911.85389571
110	1767882 43842 452 9614 45.1 191.1 1461 1368.7739385879 2084.0527103366 2461463.5805168 4212927200.0364
109	1811724 43875 452 9614 45.1 191.1 1461 2281.9611591111 2453.9197193269 3512235.6377123 8446866450.4485
120	1855599 37624 484 9614 48.3 191.1 1429 0.973 10.081962655 3585.4419834081 14288.58578136
119	1893223 44242 484 9614 48.3 191.1 1429 -4.5 2.6 54.79527986548 2608.8266577851
118	1937465 43042 483 9614 48.2 191.1 1430 0.10039949269087 13.999947421153 14059.457441595 165117.62560968
117	1980507 42990 482 9614 48.1 191.1 1431 1377.1786498781 2083.9980226215 2420216.9267963 4156586145.52
116	2023497 42992 482 9614 48.1 191.1 1431 2289.1406091495 2453.9425876513 3443407.6869162 8288979345.5834
127	2066489 36871 514 9614 51.3 191.1 1399 0.973 10.689267777763 3514.520930293 14074.418201643
126	2103360 43352 514 9614 51.3 191.1 1399 -4.156493000676 2.6 56.198942177743 2609.4097367026
125	2146712 42143 513 9614 51.2 191.1 1400 0.25575374198146 13.999501384608 13948.210366127 164339.91561597
124	2188855 42162 512 9614 51.1 191.1 1401 1385.6482254183 2083.9586383989 2377734.0733864 4095895203.1227
123	2231017 42170 512 9614 51.1 191.1 1401 2296.3754673542 2453.9033261409 3374152.2677664 8129089184.0715
134	2273187 36199 544 9614 54.3 191.1 1369 0.973 10.077537204732 3477.1277255356 13988.536505747
133	2309386 42438 544 9614 54.3 191.1 1369 -3.9457086068405 2.6 56.849278999213 2595.3755380193
132	2351824 41282 543 9614 54.2 191.1 1370 0.25452556009637 13.999782251157 13836.801020607 163480.23751171
131	2393106 41247 542 9614 54.1 191.1 1371 1394.1242357185 2083.9930004338 2336026.9530304 4038133865.9246
130	2434353 41270 542 9614 54.1 191.1 1371 2303.6158222425 2453.9073808601 3304789.0561319 7968717530.7199
141	2475623 35495 574 9614 57.3 191.1 1339 0.973 10.389142094958 3497.3861975489 14472.724819516
140	2511118 41183 574 9614 57.3 191.1 1339 -4.5 2.6 135.88063723967 2920.7369098949
139	2552301 40362 573 9614 57.2 191.1 1340 0.25546776798018 13.999767327376 12499.387079845 129092.06830403
138	2592663 40419 572 9614 57.1 191.1 1341 1095.9926595241 1751.2163488343 1903332.0688757 2760622519.841
137	2633082 40413 572 9614 57.1 191.1 1341 1932.7417007663 2439.3458101875 3069100.3634659 7048902425.3879
22	2673495 47593 64 9614 6.3 191.1 1849 0.973 10.552118324411 4560.9003423981 17300.483347762
21	2721088 55736 64 9614 6.3 191.1 1849 -3.7379034075544 2.6 137.09857645474 2337.4828818734
20	2776824 53730 63 9614 6.2 191.1 1850 4.4630542333443e-09 13.999978797489 19939.972867659 261134.73101194
19	2830554 53121 62 9614 6.1 191.1 1851 1376.0788061675 2120.9480926991 3410055.7204198 6379519781.2044
18	2883675 53115 62 9614 6.1 191.1 1851 1370.7321290674 2450.6296321126 3877346.0024629 8307073169.4264
148	2936790 32841 604 9614 60.3 191.1 1309 0.973 10.599158001996 3003.5638741294 11796.83262878
147	2969631 35916 604 9614 60.3 191.1 1309 -4.5 2.6 80.129100692302 3074.8679624851
146	3005547 35625 603 9614 60.2 191.1 1310 0 13.999131960296 8973.7695939718 88632.996347859
145	3041172 39596 602 9614 60.1 191.1 1311 1248.681177753 1751.4042507298 1965637.0195407 2973237923.0065
144	3080768 39583 602 9614 60.1 191.1 1311 2195.9271407698 2439.3722026133 3080045.195621 7242455822.4467
155	3120351 34486 634 9614 63.3 191.1 1279 0.973 9.9201103683605 2784.5259133572 10222.151852141
154	3154837 40567 634 9614 63.3 191.1 1279 -4.1744954589943 2.6 80.627374506239 2489.5800534644
153	3195404 39717 633 9614 63.2 191.1 1280 3.0946267499322e-11 13.999113009723 7800.6459679398 74413.840194293
152	3235121 38693 632 9614 63.1 191.1 1281 1265.1806534231 1701.1286644228 1928269.5365023 2926053982.2541
151	3273814 38697 632 9614 63.1 191.1 1281 2205.8373573656 2438.5139122612 3014366.0196608 7098789966.5281
162	3312511 33401 664 9614 66.3 191.1 1249 0.973 10.205396713253 2730.3336846348 10054.934764537
161	3345912 39409 664 9614 66.3 191.1 1249 -3.9239304655516 2.6 80.806613267525 2366.169952838
160	3385321 38648 663 9614 66.2 191.1 1250 9.2958656749324e-10 13.913163256191 7619.651621474 71108.297008247