version 2
run nodebug-0-20140709-06:23:07-5124
attr configname nodebug
attr datetime 20140709-06:23:07
attr experiment nodebug
attr inifile omnetpp.ini
attr iterationvars ""
attr iterationvars2 $repetition=0
attr measurement ""
attr network RSUVehicleScenario
attr processid 5124
attr repetition 0
attr replication #0
attr resultdir results
attr runnumber 0
attr seedset 0

vector 4  RSUVehicleScenario.node[0].veinsmobility  posx  ETV
vector 5  RSUVehicleScenario.node[0].veinsmobility  posy  ETV
vector 6  RSUVehicleScenario.node[0].veinsmobility  speed  ETV
vector 7  RSUVehicleScenario.node[0].veinsmobility  acceleration  ETV
vector 8  RSUVehicleScenario.node[0].veinsmobility  co2emission  ETV
vector 11  RSUVehicleScenario.node[1].veinsmobility  posx  ETV
vector 12  RSUVehicleScenario.node[1].veinsmobility  posy  ETV
vector 13  RSUVehicleScenario.node[1].veinsmobility  speed  ETV
vector 14  RSUVehicleScenario.node[1].veinsmobility  acceleration  ETV
vector 15  RSUVehicleScenario.node[1].veinsmobility  co2emission  ETV
vector 18  RSUVehicleScenario.node[2].veinsmobility  posx  ETV
vector 19  RSUVehicleScenario.node[2].veinsmobility  posy  ETV
vector 20  RSUVehicleScenario.node[2].veinsmobility  speed  ETV
vector 21  RSUVehicleScenario.node[2].veinsmobility  acceleration  ETV
vector 22  RSUVehicleScenario.node[2].veinsmobility  co2emission  ETV
vector 25  RSUVehicleScenario.node[3].veinsmobility  posx  ETV
vector 26  RSUVehicleScenario.node[3].veinsmobility  posy  ETV
vector 27  RSUVehicleScenario.node[3].veinsmobility  speed  ETV
vector 28  RSUVehicleScenario.node[3].veinsmobility  acceleration  ETV
vector 29  RSUVehicleScenario.node[3].veinsmobility  co2emission  ETV
vector 32  RSUVehicleScenario.node[4].veinsmobility  posx  ETV
vector 33  RSUVehicleScenario.node[4].veinsmobility  posy  ETV
vector 34  RSUVehicleScenario.node[4].veinsmobility  speed  ETV
vector 35  RSUVehicleScenario.node[4].veinsmobility  acceleration  ETV
vector 36  RSUVehicleScenario.node[4].veinsmobility  co2emission  ETV
8	4	0.3	1.4276208928798
8	5	0.4	1.5553504369406
8	6	0.5	1.6547258140606
8	7	0.6	1.7983555805977
8	8	0.7	1.8323674505787
8	9	0.8	2.0110897446338
8	10	0.9	1.970451684244
8	11	1	2.244901373431
8	12	1.1	2.2119208452933
8	13	1.2	2.2548819012347
8	14	1.3	2.5345448660167
8	15	1.4	2.6013847819414
8	16	1.5	2.852151772081
8	17	1.6	2.3526342216865
8	18	1.7	3.339605186172
8	19	1.8	2.4276646371033
8	20	1.9	3.3234379637286
8	21	2	3.3108190720898
8	22	2.1	3.2988402737822
8	23	2.2	2.9578171889378
8	24	2.3	2.9959376211745
8	25	2.4	3.4908200907348
8	26	2.5	3.6670806850063
8	27	2.6	3.6268696198063
8	28	2.7	4.0205201967415
8	29	2.8	3.1988957479633
8	30	2.9	3.4137976506977
8	31	3	4.907912272511
8	32	3.1	4.5496391886597
8	33	3.2	5.1843707050129
8	34	3.3	5.490502883119
8	35	3.4	3.8970556575359
8	36	3.5	4.0812734992789
8	37	3.6	3.9458891055838
8	38	3.7	3.7593760917064
8	39	3.8	4.2273339749307
8	40	3.9	5.1045553963918
8	41	4	4.4294934204996
8	42	4.1	6.1704815888201
8	43	4.2	4.9722185416067
8	44	4.3	6.3796667209292
8	45	4.4	4.3550328563445
8	46	4.5	5.5724689565354
8	47	4.6	5.9783016536976
8	48	4.7	6.531517038645
8	49	4.8	5.1600288586713
8	50	4.9	6.1886912441601
8	51	5	5.9549957283831
8	52	5.1	7.7853608744789
8	53	5.2	6.0293065596097
8	54	5.3	6.1389862136434
8	55	5.4	6.215380184048
8	56	5.5	5.2080809029875
8	57	5.6	6.1561018361202
8	58	5.7	7.3629412347938
8	59	5.8	7.2141082079045
8	60	5.9	6.3899916329279
8	61	6	8.8173762262081
8	62	6.1	6.712915009577
8	63	6.2	6.7856909201694
8	64	6.3	8.0773156423548
8	65	6.4	8.3743676988308
8	66	6.5	8.4713421478856
8	67	6.6	8.1436375074094
8	68	6.7	6.1246890190291
8	69	6.8	9.3014481119437
8	70	6.9	6.1272339967354
8	71	7	9.3496226877566
8	72	7.1	8.5304672898817
8	73	7.2	9.1242607840614
8	74	7.3	0.973
8	75	7.4	4.3577761273913
8	76	7.5	0.973
8	77	7.6	2.5720389208699
8	78	7.7	2.8766605061585
8	79	7.8	4.3165487169568
8	80	7.9	0.973
8	81	8	1.5897409358382
8	82	8.1	4.2992840120413
8	83	8.2	3.8192287130312
8	84	8.3	0.973
8	85	8.4	4.9896392768023
8	86	8.5	0.973
8	87	8.6	3.2116257252267
8	88	8.7	2.8822162993739
8	89	8.8	0.973
8	90	8.9	2.2705069044256
8	91	9	3.8308782287708
8	92	9.1	2.0735985700595
8	93	9.2	0.973
8	94	9.3	2.8376475775941
8	95	9.4	1.3397800903168
8	96	9.5	0.973
8	97	9.6	0.973
8	98	9.7	2.6721583083952
8	99	9.8	1.7699536569376
8	100	9.9	4.1362624045135
8	101	10	0.973
8	102	10.1	0.973
8	103	10.2	0.973
8	104	10.3	0.973
8	105	10.4	0.973
8	106	10.5	0.973
8	107	10.6	0.973
8	108	10.7	0.973
8	109	10.8	0.973
8	110	10.9	0.973
8	111	11	0.973
8	112	11.1	0.973
8	113	11.2	0.973
8	114	11.3	0.973
8	115	11.4	0.973
8	116	11.5	0.973
8	117	11.6	0.973
8	118	11.7	0.973
8	119	11.8	0.973
8	120	11.9	0.973
8	121	12	0.973
8	122	12.1	0.973
8	123	12.2	0.973
8	124	12.3	0.973
8	125	12.4	0.973
8	126	12.5	0.973
8	127	12.6	0.973
8	128	12.7	0.973
8	129	12.8	0.973
8	130	12.9	0.973
8	131	13	0.973
8	132	13.1	0.973
8	133	13.2	0.973
8	134	13.3	0.973
8	135	13.4	0.973
8	136	13.5	0.973
8	137	13.6	3.5735574093087
8	138	13.7	3.7500424838715
8	139	13.8	3.9266738352852
8	140	13.9	4.1034612054572
8	141	14	4.2804143362946
8	142	14.1	4.4575429697045
8	143	14.2	4.6348568475942
8	144	14.3	4.8123657118707
8	145	14.4	4.9900793044413
8	146	14.5	3.8570439909308
8	147	14.6	3.9658166612094
7	4	0.3	2.4479752470855
7	5	0.4	2.3290637582572
7	6	0.5	2.1818481258762
7	7	0.6	2.2357036410334
7	8	0.7	1.9855717337837
7	9	0.8	2.1556800054752
7	10	0.9	1.8177961522857
7	11	1	2.1703654659723
7	12	1.1	1.8999668675033
7	13	1.2	1.8135391334582
7	14	1.3	2.1003037793096
7	15	1.4	2.0311366270296
7	16	1.5	2.213205013168
7	17	1.6	1.4406950977165
7	18	1.7	2.5262731315568
7	19	1.8	1.3472384067252
7	20	1.9	2.2455468171276
7	21	2	2.1015260222834
7	22	2.1	1.979035354848
7	23	2.2	1.5707574565429
7	24	2.3	1.5441806555958
7	25	2.4	1.9124366020085
7	26	2.5	1.9760296771768
7	27	2.6	1.861542067118
7	28	2.7	2.0893797688885
7	29	2.8	1.3967243768042
7	30	2.9	1.5130976005224
7	31	3	2.5076531236758
7	32	3.1	2.16138498988
7	33	3.2	2.4867319139419
7	34	3.3	2.5737160811434
7	35	3.4	1.5175942043075
7	36	3.5	1.5883962160442
7	37	3.6	1.4689842111664
7	38	3.7	1.3277961542364
7	39	3.8	1.5610938670114
7	40	3.9	2.0000768283615
7	41	4	1.5853120716521
7	42	4.1	2.4462432491127
7	43	4.2	1.7681026779115
7	44	4.3	2.413640728849
7	45	4.4	1.3719304058002
7	46	4.5	1.9215971733676
7	47	4.6	2.0609394765459
7	48	4.7	2.2560777051607
7	49	4.8	1.5934962075436
7	50	4.9	2.0070045632543
7	51	5	1.8610358671751
7	52	5.1	2.5755732625723
7	53	5.2	1.7970738488948
7	54	5.3	1.8042755607981
7	55	5.4	1.7979858017527
7	56	5.5	1.3731275021331
7	57	5.6	1.7136336127995
7	58	5.7	2.1326397273224
7	59	5.8	2.0318584615365
7	60	5.9	1.6930794459535
7	61	6	2.5217068935512
7	62	6.1	1.7332032753387
7	63	6.2	1.7281707641901
7	64	6.3	2.1344021787401
7	65	6.4	2.1899431454483
7	66	6.5	2.1774386041798
7	67	6.6	2.0298180325888
7	68	6.7	1.3533659499604
7	69	6.8	2.3284602138447
7	70	6.9	1.3061105647124
7	71	7	2.2707209182903
7	72	7.1	1.9828932433389
7	73	7.2	2.1237779836318
7	74	7.3	-0.67051755650901
7	75	7.4	0.69754018457607
7	76	7.5	-1.0548045324627
7	77	7.6	0.16715116663836
7	78	7.7	0.25759127894418
7	79	7.8	0.68477199978661
7	80	7.9	-1.0167235876667
7	81	8	-0.12813790892251
7	82	8.1	0.68328243996948
7	83	8.2	0.53556285242085
7	84	8.3	-1.2225186239695
7	85	8.4	0.88848049053922
7	86	8.5	-0.51027728305197
7	87	8.6	0.35671765725128
7	88	8.7	0.25667311176656
7	89	8.8	-0.45471310988068
7	90	8.9	0.074922233750119
7	91	9	0.53953699145932
7	92	9.1	0.014076425158418
7	93	9.2	-0.306093408796
7	94	9.3	0.2428024208173
7	95	9.4	-0.20489069765899
7	96	9.5	-0.38623889465816
7	97	9.6	-0.31515522389672
7	98	9.7	0.1964605357265
7	99	9.8	-0.074590725474994
7	100	9.9	0.63237314489671
7	101	10	-3.7140856953146
7	102	10.1	-2.9621553461115
7	103	10.2	-3.7178356585583
7	104	10.3	-3.7177556634409
7	105	10.4	-3.5125273090237
7	106	10.5	-3.4331098520423
7	107	10.6	-3.3109522588677
7	108	10.7	-3.0716847170398
7	109	10.8	-3.5687991781258
7	110	10.9	-2.5431661972141
7	111	11	-2.6910954925232
7	112	11.1	-4.0311948625099
7	113	11.2	-3.1110581454228
7	114	11.3	-2.49591556567
7	115	11.4	-3.6622133962449
7	116	11.5	-3.0757743640984
7	117	11.6	-3.1280177515175
7	118	11.7	-3.2863787560456
7	119	11.8	-2.347147176928
7	120	11.9	-3.4019422405471
7	121	12	-1.9204662744008
7	122	12.1	-3.6730069372524
7	123	12.2	-2.0395810378463
7	124	12.3	-3.2232254993577
7	125	12.4	-3.1520001716355
7	126	12.5	-1.6885349946361
7	127	12.6	-3.3654656086344
7	128	12.7	-1.6873615517547
7	129	12.8	-3.5726926190638
7	130	12.9	-2.5341890137759
7	131	13	-1.7968513860919
7	132	13.1	-1.888760944261
7	133	13.2	-2.3341686997751
7	134	13.3	-2.7334543021512
7	135	13.4	-1.5447099117149
7	136	13.5	-2.7997778972337
7	137	13.6	2.6
7	138	13.7	2.6
7	139	13.8	2.6
7	140	13.9	2.6
7	141	14	2.6
7	142	14.1	2.6
7	143	14.2	2.6
7	144	14.3	2.6
7	145	14.4	2.6
7	146	14.5	1.7197939507896
7	147	14.6	1.7379983353661
6	3	0.2	0.25286542447004
6	4	0.3	0.49766294917859
6	5	0.4	0.73056932500431
6	6	0.5	0.94875413759194
6	7	0.6	1.1723245016953
6	8	0.7	1.3708816750736
6	9	0.8	1.5864496756212
6	10	0.9	1.7682292908497
6	11	1	1.985265837447
6	12	1.1	2.1752625241973
6	13	1.2	2.3566164375431
6	14	1.3	2.5666468154741
6	15	1.4	2.769760478177
6	16	1.5	2.9910809794938
6	17	1.6	3.1351504892655
6	18	1.7	3.3877778024212
6	19	1.8	3.5225016430937
6	20	1.9	3.7470563248065
6	21	2	3.9572089270348
6	22	2.1	4.1551124625196
6	23	2.2	4.3121882081739
6	24	2.3	4.4666062737335
6	25	2.4	4.6578499339343
6	26	2.5	4.855452901652
6	27	2.6	5.0416071083638
6	28	2.7	5.2505450852527
6	29	2.8	5.3902175229331
6	30	2.9	5.5415272829853
6	31	3	5.7922925953529
6	32	3.1	6.0084310943409
6	33	3.2	6.2571042857351
6	34	3.3	6.5144758938494
6	35	3.4	6.6662353142802
6	36	3.5	6.8250749358846
6	37	3.6	6.9719733570013
6	38	3.7	7.1047529724249
6	39	3.8	7.260862359126
6	40	3.9	7.4608700419622
6	41	4	7.6194012491274
6	42	4.1	7.8640255740387
6	43	4.2	8.0408358418298
6	44	4.3	8.2821999147147
6	45	4.4	8.4193929552947
6	46	4.5	8.6115526726315
6	47	4.6	8.8176466202861
6	48	4.7	9.0432543908022
6	49	4.8	9.2026040115565
6	50	4.9	9.403304467882
6	51	5	9.5894080545995
6	52	5.1	9.8469653808567
6	53	5.2	10.026672765746
6	54	5.3	10.207100321826
6	55	5.4	10.386898902001
6	56	5.5	10.524211652215
6	57	5.6	10.695575013495
6	58	5.7	10.908838986227
6	59	5.8	11.11202483238
6	60	5.9	11.281332776976
6	61	6	11.533503466331
6	62	6.1	11.706823793865
6	63	6.2	11.879640870284
6	64	6.3	12.093081088158
6	65	6.4	12.312075402703
6	66	6.5	12.529819263121
6	67	6.6	12.732801066379
6	68	6.7	12.868137661375
6	69	6.8	13.10098368276
6	70	6.9	13.231594739231
6	71	7	13.45866683106
6	72	7.1	13.656956155394
6	73	7.2	13.869333953757
6	74	7.3	13.802282198106
6	75	7.4	13.872036216564
6	76	7.5	13.766555763318
6	77	7.6	13.783270879982
6	78	7.7	13.809030007876
6	79	7.8	13.877507207855
6	80	7.9	13.775834849088
6	81	8	13.763021058196
6	82	8.1	13.831349302193
6	83	8.2	13.884905587435
6	84	8.3	13.762653725038
6	85	8.4	13.851501774092
6	86	8.5	13.800474045787
6	87	8.6	13.836145811512
6	88	8.7	13.861813122688
6	89	8.8	13.8163418117
6	90	8.9	13.823834035075
6	91	9	13.877787734221
6	92	9.1	13.879195376737
6	93	9.2	13.848586035857
6	94	9.3	13.872866277939
6	95	9.4	13.852377208173
6	96	9.5	13.813753318707
6	97	9.6	13.782237796318
6	98	9.7	13.80188384989
6	99	9.8	13.794424777343
6	100	9.9	13.857662091833
6	101	10	13.486253522301
6	102	10.1	13.19003798769
6	103	10.2	12.818254421834
6	104	10.3	12.44647885549
6	105	10.4	12.095226124588
6	106	10.5	11.751915139383
6	107	10.6	11.420819913497
6	108	10.7	11.113651441793
6	109	10.8	10.75677152398
6	110	10.9	10.502454904259
6	111	11	10.233345355006
6	112	11.1	9.8302258687554
6	113	11.2	9.5191200542132
6	114	11.3	9.2695284976461
6	115	11.4	8.9033071580217
6	116	11.5	8.5957297216118
6	117	11.6	8.2829279464601
6	118	11.7	7.9542900708555
6	119	11.8	7.7195753531627
6	120	11.9	7.379381129108
6	121	12	7.1873345016679
6	122	12.1	6.8200338079427
6	123	12.2	6.6160757041581
6	124	12.3	6.2937531542223
6	125	12.4	5.9785531370587
6	126	12.5	5.8096996375951
6	127	12.6	5.4731530767317
6	128	12.7	5.3044169215562
6	129	12.8	4.9471476596498
6	130	12.9	4.6937287582722
6	131	13	4.5140436196631
6	132	13.1	4.3251675252369
6	133	13.2	4.0917506552594
6	134	13.3	3.8184052250443
6	135	13.4	3.6639342338728
6	136	13.5	3.3839564441494
6	137	13.6	3.6439564441494
6	138	13.7	3.9039564441494
6	139	13.8	4.1639564441494
6	140	13.9	4.4239564441494
6	141	14	4.6839564441494
6	142	14.1	4.9439564441494
6	143	14.2	5.2039564441494
6	144	14.3	5.4639564441494
6	145	14.4	5.7239564441494
6	146	14.5	5.8959358392284
6	147	14.6	6.069735672765
5	2	0.1	1578.0861504339
5	3	0.2	1578.0861504339
5	4	0.3	1578.0948660281
5	5	0.4	1578.1120191384
5	6	0.5	1578.1371999085
5	7	0.6	1578.1699009249
5	8	0.7	1578.2103078142
5	9	0.8	1578.2575584371
5	10	0.9	1578.3122391133
5	11	1	1578.3731852453
5	12	1.1	1578.4416120471
5	13	1.2	1578.5165875256
5	14	1.3	1578.5978137888
5	15	1.4	1578.6862792373
5	16	1.5	1578.7817454701
5	17	1.6	1578.8848400284
5	18	1.7	1578.9929002775
5	19	1.8	1579.109667914
5	20	1.9	1579.2310791202
5	21	2	1579.3602301264
5	22	2.1	1579.4966245294
5	23	2.2	1579.6398401391
5	24	2.3	1579.7884697281
5	25	2.4	1579.9424216952
5	26	2.5	1580.1029653195
5	27	2.6	1580.2703197896
5	28	2.7	1580.4440904977
5	29	2.8	1580.6250627376
5	30	2.9	1580.8108491134
5	31	3	1581.0018507317
5	32	3.1	1581.2776015159
5	33	3.2	1581.7051451085
5	34	3.3	1582.1503836084
5	35	3.4	1582.6139359707
5	36	3.5	1583.0882871207
5	37	3.6	1583.5739408657
5	38	3.7	1584.0700475015
5	39	3.8	1584.5756023731
5	40	3.9	1585.092265564
5	41	4	1585.6231607571
5	42	4.1	1586.1653365986
5	43	4.2	1586.7249192409
5	44	4.3	1587.2970832204
5	45	4.4	1587.8864220101
5	46	4.5	1588.4855230832
5	47	4.6	1589.098297718
5	48	4.7	1589.7257374367
5	49	4.8	1590.3692307901
5	50	4.9	1591.0240630284
5	51	5	1591.6931765648
5	52	5.1	1592.3755327258
5	53	5.2	1593.0762159638
5	54	5.3	1593.789686691
5	55	5.4	1594.5159961507
5	56	5.5	1595.2550995881
5	57	5.6	1596.0039738277
5	58	5.7	1596.765041816
5	59	5.8	1597.5412850883
5	60	5.9	1598.3319865121
5	61	6	1599.1347354287
5	62	6.1	1599.9554281235
5	63	6.2	1600.788453822
5	64	6.3	1601.6337767122
5	65	6.4	1602.4942874275
5	66	6.5	1603.3703811811
5	67	6.6	1604.2619689954
5	68	6.7	1605.168000442
5	69	6.8	1606.0836620722
5	70	6.9	1607.0158923911
5	71	7	1607.9574166369
5	72	7.1	1608.9150987137
5	73	7.2	1609.8868905203
5	74	7.3	1610.873794551
5	75	7.4	1611.8559273621
5	76	7.5	1612.8430236792
5	77	7.6	1613.8226142945
5	78	7.7	1614.803394312
5	79	7.8	1615.7860072795
5	80	7.9	1616.7734928969
5	81	8	1617.7537437873
5	82	8.1	1618.7330828821
5	83	8.2	1619.7172840293
5	84	8.3	1620.7052960955
5	85	8.4	1621.6846090527
5	86	8.5	1622.6702441946
5	87	8.6	1623.6522483425
5	88	8.7	1624.6367907962
5	89	8.8	1625.6231596656
5	90	8.9	1626.6062929211
5	91	9	1627.589959302
5	92	9.1	1628.5774648814
5	93	9.2	1629.5650706254
5	94	9.3	1630.5504982909
5	95	9.4	1631.5376536734
5	96	9.5	1632.5233511087
5	97	9.6	1633.5063001737
5	98	9.7	1634.4870066792
5	99	9.8	1635.4691111455
5	100	9.9	1636.4506848436
5	101	10	1637.4367583375
5	102	10.1	1638.3964034086
5	103	10.2	1639.3349705888
5	104	10.3	1640.2470826637
5	105	10.4	1641.1327402014
5	106	10.5	1641.9934035512
5	107	10.6	1642.8296378264
5	108	10.7	1643.6423122678
5	109	10.8	1644.4331294363
5	110	10.9	1645.1985520022
5	111	11	1645.9458780903
5	112	11.1	1646.6938285446
5	113	11.2	1647.4684687229
5	114	11.3	1648.218593182
5	115	11.4	1648.9490493601
5	116	11.5	1649.6506466111
5	117	11.6	1650.3280061856
5	118	11.7	1650.9807163952
5	119	11.8	1651.6075293263
5	120	11.9	1652.2158462973
5	121	12	1652.7973553287
5	122	12.1	1653.3637307258
5	123	12.2	1653.9011621429
5	124	12.3	1654.4225212783
5	125	12.4	1654.9184807949
5	126	12.5	1655.3896019608
5	127	12.6	1655.8474171553
5	128	12.7	1656.2787118517
5	129	12.8	1656.781492712
5	130	12.9	1657.2694992935
5	131	13	1657.7325076126
5	132	13.1	1658.1777910655
5	133	13.2	1658.6044430202
5	134	13.3	1659.0080697937
5	135	13.4	1659.384732672
5	136	13.5	1659.7461579097
5	137	13.6	1660.0799650103
5	138	13.7	1660.4394195583
5	139	13.8	1660.8245215537
5	140	13.9	1661.2352709975
5	141	14	1661.6716678888
5	142	14.1	1662.1337122275
5	143	14.2	1662.6214040136
5	144	14.3	1663.1347432481
5	145	14.4	1663.673729931
5	146	14.5	1664.2383640604
5	147	14.6	1664.8243380953
4	2	0.1	2415.8694684898
4	3	0.2	2415.8694684898
4	4	0.3	2415.845732873
4	5	0.4	2415.7990189458
4	6	0.5	2415.7304428896
4	7	0.6	2415.6413865678
4	8	0.7	2415.5313444568
4	9	0.8	2415.4026644597
4	10	0.9	2415.253749828
4	11	1	2415.0877721626
4	12	1.1	2414.9014220152
4	13	1.2	2414.6972375255
4	14	1.3	2414.476029961
4	15	1.4	2414.2351075599
4	16	1.5	2413.9751195706
4	17	1.6	2413.6943569791
4	18	1.7	2413.400071073
4	19	1.8	2413.0820719008
4	20	1.9	2412.7514266602
4	21	2	2412.3997032359
4	22	2.1	2412.0282535021
4	23	2.2	2411.638227237
4	24	2.3	2411.2334568062
4	25	2.4	2410.8141916771
4	26	2.5	2410.3769751566
4	27	2.6	2409.9212103181
4	28	2.7	2409.4479718177
4	29	2.8	2408.9551210204
4	30	2.9	2408.449159647
4	31	3	2407.9289953412
4	32	3.1	2407.434272861
4	33	3.2	2407.0121586007
4	34	3.3	2406.5725741392
4	35	3.4	2406.114908381
4	36	3.5	2405.6465809684
4	37	3.6	2405.1670944914
4	38	3.7	2404.677287863
4	39	3.8	2404.1781529811
4	40	3.9	2403.6680508436
4	41	4	2403.143897435
4	42	4.1	2402.6086066293
4	43	4.2	2402.05613007
4	44	4.3	2401.4912319428
4	45	4.4	2400.9093771066
4	46	4.5	2400.3178839575
4	47	4.6	2399.7128908854
4	48	4.7	2399.0934189598
4	49	4.8	2398.4580972631
4	50	4.9	2397.8115806727
4	51	5	2397.1509641412
4	52	5.1	2396.4772731521
4	53	5.2	2395.7854878188
4	54	5.3	2395.0810773844
4	55	5.4	2394.3639912542
4	56	5.5	2393.6342736162
4	57	5.6	2392.8949092553
4	58	5.7	2392.1435059916
4	59	5.8	2391.3771201536
4	60	5.9	2390.5964597668
4	61	6	2389.8039048777
4	62	6.1	2388.9936340754
4	63	6.2	2388.1711868861
4	64	6.3	2387.3365986652
4	65	6.4	2386.4870154882
4	66	6.5	2385.6220471597
4	67	6.6	2384.7417815286
4	68	6.7	2383.8472556834
4	69	6.8	2382.9432219474
4	70	6.9	2382.0228299268
4	71	7	2381.0932620018
4	72	7.1	2380.1477414317
4	73	7.2	2379.1882903115
4	74	7.3	2378.213918874
4	75	7.4	2377.2442580678
4	76	7.5	2376.2696967865
4	77	7.6	2375.3025458929
4	78	7.7	2374.3342207012
4	79	7.8	2373.3640858366
4	80	7.9	2372.3891401981
4	81	8	2371.4213374149
4	82	8.1	2370.4544348472
4	83	8.2	2369.4827319705
4	84	8.3	2368.5072665688
4	85	8.4	2367.5403898078
4	86	8.5	2366.5672711462
4	87	8.6	2365.5977373691
4	88	8.7	2364.6256975201
4	89	8.8	2363.6518544486
4	90	8.9	2362.6812059031
4	91	9	2361.7100310014
4	92	9.1	2360.735065655
4	93	9.2	2359.7600014166
4	94	9.3	2358.7870875963
4	95	9.4	2357.8124680001
4	96	9.5	2356.8392878361
4	97	9.6	2355.8688211417
4	98	9.7	2354.9005685279
4	99	9.8	2353.9309357069
4	100	9.9	2352.9618269132
4	101	10	2351.9882754667
4	102	10.1	2351.0408168308
4	103	10.2	2350.1141684195
4	104	10.3	2349.2136391635
4	105	10.4	2348.339228501
4	106	10.5	2347.4894946273
4	107	10.6	2346.6638796061
4	108	10.7	2345.8615252355
4	109	10.8	2345.0807505734
4	110	10.9	2344.3250480309
4	111	11	2343.5872121612
4	112	11.1	2342.8907783106
4	113	11.2	2342.2856642498
4	114	11.3	2341.6997007666
4	115	11.4	2341.12910126
4	116	11.5	2340.5810450484
4	117	11.6	2340.0519222198
4	118	11.7	2339.5420543662
4	119	11.8	2339.0524163019
4	120	11.9	2338.5772264486
4	121	12	2338.1229777527
4	122	12.1	2337.6805507704
4	123	12.2	2337.2607335243
4	124	12.3	2336.8534712204
4	125	12.4	2336.4660499566
4	126	12.5	2336.0980312951
4	127	12.6	2335.74040666
4	128	12.7	2335.4034986452
4	129	12.8	2335.2700123627
4	130	12.9	2335.188980291
4	131	13	2335.1120991078
4	132	13.1	2335.0381610871
4	133	13.2	2334.9673167726
4	134	13.3	2334.9002957222
4	135	13.4	2334.837751948
4	136	13.5	2334.7777383397
4	137	13.6	2334.7223106428
4	138	13.7	2334.6626242619
4	139	13.8	2334.5986791969
4	140	13.9	2334.5304754479
4	141	14	2334.458013015
4	142	14.1	2334.381291898
4	143	14.2	2334.300312097
4	144	14.3	2334.2150736119
4	145	14.4	2334.1255764429
4	146	14.5	2334.0318205898
4	147	14.6	2333.9721643698
15	34	3.3	1.4374867592412
15	35	3.4	1.5359622306157
15	36	3.5	1.7542787034131
15	37	3.6	1.7558625097664
15	38	3.7	1.9459058261406
15	39	3.8	1.934077584112
15	40	3.9	2.1233720653538
15	41	4	2.1233215430257
15	42	4.1	2.1549096014547
15	43	4.2	2.3055635867754
15	44	4.3	2.4092828910849
15	45	4.4	2.3025424680536
15	46	4.5	3.0180564847805
15	47	4.6	2.7809191328738
15	48	4.7	3.2121220823043
15	49	4.8	2.6983777470843
15	50	4.9	3.4217200501691
15	51	5	3.6729115306537
15	52	5.1	3.559573660761
15	53	5.2	3.9447754859589
15	54	5.3	3.9835561553698
15	55	5.4	3.8576832985585
15	56	5.5	3.1155343964884
15	57	5.6	3.9456657678717
15	58	5.7	3.7640228391232
15	59	5.8	3.3257667550119
15	60	5.9	4.8983021517334
15	61	6	3.3521294548572
15	62	6.1	4.0305323419248
15	63	6.2	5.1123034967947
15	64	6.3	5.3537151925365
15	65	6.4	4.4464757238703
15	66	6.5	4.6216690069877
15	67	6.6	4.5678956467176
15	68	6.7	5.9291679028509
15	69	6.8	4.7744266182146
15	70	6.9	4.8165791517692
15	71	7	5.5151363048864
15	72	7.1	6.0815614086912
15	73	7.2	5.967518625568
15	74	7.3	5.2112579609732
15	75	7.4	4.9537066640357
15	76	7.5	6.2029143041249
15	77	7.6	7.3818699254384
15	78	7.7	5.0602946426277
15	79	7.8	4.7186793075561
15	80	7.9	6.3314104680407
15	81	8	7.7628816722352
15	82	8.1	5.7027367412107
15	83	8.2	6.7629991224542
15	84	8.3	7.9683909945973
15	85	8.4	6.8812697427189
15	86	8.5	7.5649064773258
15	87	8.6	5.554071967252
15	88	8.7	6.4263743134193
15	89	8.8	5.8791143333393
15	90	8.9	7.2123159145757
15	91	9	5.8185318293869
15	92	9.1	5.8472888094104
15	93	9.2	9.4720801065986
15	94	9.3	7.1253806877378
15	95	9.4	8.7510260214404
15	96	9.5	7.7167782951438
15	97	9.6	8.5780940203572
15	98	9.7	7.8655831925188
15	99	9.8	9.1677338815531
15	100	9.9	7.2826372310079
15	101	10	6.7517886307757
15	102	10.1	4.1090348122649
15	103	10.2	3.9386137028279
15	104	10.3	3.4736116889504
15	105	10.4	0.973
15	106	10.5	2.7277510594297
15	107	10.6	0.973
15	108	10.7	3.3412383594579
15	109	10.8	3.8880233702891
15	110	10.9	0.973
15	111	11	2.6655648364295
15	112	11.1	2.8143046377252
15	113	11.2	0.973
15	114	11.3	4.8361017122835
15	115	11.4	0.973
15	116	11.5	3.4211200656557
15	117	11.6	0.973
15	118	11.7	2.8068646222867
15	119	11.8	0.973
15	120	11.9	3.9560660203766
15	121	12	0.973
15	122	12.1	0.973
15	123	12.2	0.973
15	124	12.3	0.973
15	125	12.4	0.973
15	126	12.5	0.973
15	127	12.6	0.973
15	128	12.7	0.973
15	129	12.8	0.973
15	130	12.9	0.973
15	131	13	0.973
15	132	13.1	0.973
15	133	13.2	0.973
15	134	13.3	0.973
15	135	13.4	0.973
15	136	13.5	0.973
15	137	13.6	0.973
15	138	13.7	0.973
15	139	13.8	0.973
15	140	13.9	0.973
15	141	14	0.973
15	142	14.1	2.9312471657685
15	143	14.2	0.973
15	144	14.3	2.996001545254
15	145	14.4	0.973
15	146	14.5	2.2113744656431
15	147	14.6	0.973
14	34	3.3	2.5058086450397
14	35	3.4	2.2352498837015
14	36	3.5	2.5308295496282
14	37	3.6	2.0610842388746
14	38	3.7	2.257848739438
14	39	3.8	1.9309768744856
14	40	3.9	2.1149791217531
14	41	4	1.8955771246036
14	42	4.1	1.7839522764283
14	43	4.2	1.8890033393767
14	44	4.3	1.9014148032991
14	45	4.4	1.6137996934354
14	46	4.5	2.4623201116454
14	47	4.6	1.9843194504501
14	48	4.7	2.3577679520939
14	49	4.8	1.6420063687023
14	50	4.9	2.318484536279
14	51	5	2.4242163747549
14	52	5.1	2.1786166946404
14	53	5.2	2.4054226770764
14	54	5.3	2.310982198827
14	55	5.4	2.0975643285317
14	56	5.5	1.426621987205
14	57	5.6	2.0150650135707
14	58	5.7	1.8030174996005
14	59	5.8	1.4269468483282
14	60	5.9	2.4709355429979
14	61	6	1.3392482108204
14	62	6.1	1.7509179581422
14	63	6.2	2.3778175380314
14	64	6.3	2.4323958121473
14	65	6.4	1.8098201332847
14	66	6.5	1.8587441912619
14	67	6.6	1.7754437308991
14	68	6.7	2.4673417511396
14	69	6.8	1.7744234598242
14	70	6.9	1.7509591813199
14	71	7	2.0613208355848
14	72	7.1	2.282246735529
14	73	7.2	2.1605900972383
14	74	7.3	1.7467715304112
14	75	7.4	1.588150873757
14	76	7.5	2.1206572845578
14	77	7.6	2.5823568655644
14	78	7.7	1.5106716213282
14	79	7.8	1.3364715013653
14	80	7.9	1.9907534421887
14	81	8	2.5275708992034
14	82	8.1	1.6389573442517
14	83	8.2	2.0257758020889
14	84	8.3	2.4437444660347
14	85	8.4	1.9748384028906
14	86	8.5	2.1866218747105
14	87	8.6	1.4062938852701
14	88	8.7	1.699786244845
14	89	8.8	1.4753666668199
14	90	8.9	1.9197775312001
14	91	9	1.4024951044004
14	92	9.1	1.391914942814
14	93	9.2	2.5878362877294
14	94	9.3	1.7586736198515
14	95	9.4	2.2558507863898
14	96	9.5	1.88133207059
14	97	9.6	2.1192494755378
14	98	9.7	1.8594960743096
14	99	9.8	2.224980637827
14	100	9.9	1.6170613011345
14	101	10	1.4351500939112
14	102	10.1	0.63055344290616
14	103	10.2	0.57506370858755
14	104	10.3	0.43289456854108
14	105	10.4	-0.38430370143615
14	106	10.5	0.21063102681655
14	107	10.6	-0.93030592664144
14	108	10.7	0.39747214580421
14	109	10.8	0.55787600832991
14	110	10.9	-0.50475819923451
14	111	11	0.19327928437852
14	112	11.1	0.23678353994621
14	113	11.2	-0.59953248188831
14	114	11.3	0.84019841891713
14	115	11.4	-0.32653829581104
14	116	11.5	0.41654804188292
14	117	11.6	-0.37358379499056
14	118	11.7	0.23365334311967
14	119	11.8	-1.0956118322909
14	120	11.9	0.58112563355825
14	121	12	-1.7861176792021
14	122	12.1	-2.8805333585488
14	123	12.2	-3.6539664948576
14	124	12.3	-2.0562294096427
14	125	12.4	-3.2248596147083
14	126	12.5	-2.2641313584742
14	127	12.6	-2.3009845983649
14	128	12.7	-3.5768275104904
14	129	12.8	-1.5200120659244
14	130	12.9	-3.6490125027912
14	131	13	-2.325478797087
14	132	13.1	-1.8177151330991
14	133	13.2	-3.5684305076216
14	134	13.3	-2.3554522089287
14	135	13.4	-2.4006457192667
14	136	13.5	-2.0485265669022
14	137	13.6	-3.2598558948333
14	138	13.7	-1.3474729113657
14	139	13.8	-0.40448415020002
14	140	13.9	-1.8909766312566
14	141	14	-0.7746433576831
14	142	14.1	0.61140207479117
14	143	14.2	-1.5618456663965
14	144	14.3	0.65092660132214
14	145	14.4	-0.90304730994838
14	146	14.5	0.28828070912128
14	147	14.6	-0.87005960578644
13	33	3.2	0.25157376560476
13	34	3.3	0.50215463010873
13	35	3.4	0.72567961847888
13	36	3.5	0.9787625734417
13	37	3.6	1.1848709973292
13	38	3.7	1.410655871273
13	39	3.8	1.6037535587215
13	40	3.9	1.8152514708968
13	41	4	2.0048091833572
13	42	4.1	2.183204411
13	43	4.2	2.3721047449377
13	44	4.3	2.5622462252676
13	45	4.4	2.7236261946111
13	46	4.5	2.9698582057757
13	47	4.6	3.1682901508207
13	48	4.7	3.4040669460301
13	49	4.8	3.5682675829003
13	50	4.9	3.8001160365282
13	51	5	4.0425376740037
13	52	5.1	4.2603993434677
13	53	5.2	4.5009416111754
13	54	5.3	4.7320398310581
13	55	5.4	4.9417962639113
13	56	5.5	5.0844584626318
13	57	5.6	5.2859649639888
13	58	5.7	5.4662667139489
13	59	5.8	5.6089613987817
13	60	5.9	5.8560549530815
13	61	6	5.9899797741635
13	62	6.1	6.1650715699777
13	63	6.2	6.4028533237809
13	64	6.3	6.6460929049956
13	65	6.4	6.8270749183241
13	66	6.5	7.0129493374503
13	67	6.6	7.1904937105402
13	68	6.7	7.4372278856541
13	69	6.8	7.6146702316366
13	70	6.9	7.7897661497686
13	71	7	7.995898233327
13	72	7.1	8.2241229068799
13	73	7.2	8.4401819166038
13	74	7.3	8.6148590696449
13	75	7.4	8.7736741570206
13	76	7.5	8.9857398854764
13	77	7.6	9.2439755720328
13	78	7.7	9.3950427341656
13	79	7.8	9.5286898843022
13	80	7.9	9.727765228521
13	81	8	9.9805223184414
13	82	8.1	10.144418052867
13	83	8.2	10.346995633075
13	84	8.3	10.591370079679
13	85	8.4	10.788853919968
13	86	8.5	11.007516107439
13	87	8.6	11.148145495966
13	88	8.7	11.318124120451
13	89	8.8	11.465660787133
13	90	8.9	11.657638540253
13	91	9	11.797888050693
13	92	9.1	11.937079544974
13	93	9.2	12.195863173747
13	94	9.3	12.371730535732
13	95	9.4	12.597315614371
13	96	9.5	12.78544882143
13	97	9.6	12.997373768984
13	98	9.7	13.183323376415
13	99	9.8	13.405821440197
13	100	9.9	13.567527570311
13	101	10	13.711042579702
13	102	10.1	13.774097923993
13	103	10.2	13.831604294851
13	104	10.3	13.874893751706
13	105	10.4	13.836463381562
13	106	10.5	13.857526484244
13	107	10.6	13.764495891579
13	108	10.7	13.80424310616
13	109	10.8	13.860030706993
13	110	10.9	13.809554887069
13	111	11	13.828882815507
13	112	11.1	13.852561169502
13	113	11.2	13.792607921313
13	114	11.3	13.876627763205
13	115	11.4	13.843973933624
13	116	11.5	13.885628737812
13	117	11.6	13.848270358313
13	118	11.7	13.871635692625
13	119	11.8	13.762074509396
13	120	11.9	13.820187072752
13	121	12	13.641575304831
13	122	12.1	13.353521968976
13	123	12.2	12.988125319491
13	124	12.3	12.782502378526
13	125	12.4	12.460016417056
13	126	12.5	12.233603281208
13	127	12.6	12.003504821372
13	128	12.7	11.645822070323
13	129	12.8	11.49382086373
13	130	12.9	11.128919613451
13	131	13	10.896371733742
13	132	13.1	10.714600220433
13	133	13.2	10.35775716967
13	134	13.3	10.122211948777
13	135	13.4	9.8821473768508
13	136	13.5	9.6772947201606
13	137	13.6	9.3513091306773
13	138	13.7	9.2165618395407
13	139	13.8	9.1761134245207
13	140	13.9	8.987015761395
13	141	14	8.9095514256267
13	142	14.1	8.9706916331058
13	143	14.2	8.8145070664662
13	144	14.3	8.8795997265984
13	145	14.4	8.7892949956036
13	146	14.5	8.8181230665157
13	147	14.6	8.731117105937
12	32	3.1	1578.0861504339
12	33	3.2	1578.0861504339
12	34	3.3	1578.094821508
12	35	3.4	1578.1121294349
12	36	3.5	1578.1371416692
12	37	3.6	1578.1708769966
12	38	3.7	1578.2117163297
12	39	3.8	1578.2603378631
12	40	3.9	1578.3156149574
12	41	4	1578.3781818189
12	42	4.1	1578.4472822268
12	43	4.2	1578.5225314414
12	44	4.3	1578.6042915452
12	45	4.4	1578.6926053166
12	46	4.5	1578.7864814242
12	47	4.6	1578.8888444901
12	48	4.7	1578.9980469747
12	49	4.8	1579.1153760543
12	50	4.9	1579.23836469
12	51	5	1579.3693445222
12	52	5.1	1579.5086799795
12	53	5.2	1579.6555245453
12	54	5.3	1579.8106599599
12	55	5.4	1579.973760712
12	56	5.5	1580.1440912066
12	57	5.6	1580.3193388861
12	58	5.7	1580.5015319549
12	59	5.8	1580.6899395427
12	60	5.9	1580.8832654338
12	61	6	1581.0851079794
12	62	6.1	1581.463551742
12	63	6.2	1581.9022414442
12	64	6.3	1582.3578510489
12	65	6.4	1582.8307689195
12	66	6.5	1583.3165649772
12	67	6.6	1583.815587353
12	68	6.7	1584.327243302
12	69	6.8	1584.8564561838
12	70	6.9	1585.3982953783
12	71	7	1585.9525939226
12	72	7.1	1586.5215602648
12	73	7.2	1587.1067664521
12	74	7.3	1587.707346811
12	75	7.4	1588.3203567201
12	76	7.5	1588.9446674781
12	77	7.6	1589.5840682564
12	78	7.7	1590.2418443821
12	79	7.8	1590.910370036