file 57300 1404912198                                           
version 2
run nodebug-0-20140709-06:23:07-5124
attr configname nodebug
attr datetime 20140709-06:23:07
attr experiment nodebug
attr inifile omnetpp.ini
attr iterationvars ""
attr iterationvars2 $repetition=0
attr measurement ""
attr network RSUVehicleScenario
attr processid 5124
attr repetition 0
attr replication #0
attr resultdir results
attr runnumber 0
attr seedset 0

vector 4  RSUVehicleScenario.node[0].veinsmobility  posx  ETV
vector 5  RSUVehicleScenario.node[0].veinsmobility  posy  ETV
vector 6  RSUVehicleScenario.node[0].veinsmobility  speed  ETV
vector 7  RSUVehicleScenario.node[0].veinsmobility  acceleration  ETV
vector 8  RSUVehicleScenario.node[0].veinsmobility  co2emission  ETV
vector 11  RSUVehicleScenario.node[1].veinsmobility  posx  ETV
vector 12  RSUVehicleScenario.node[1].veinsmobility  posy  ETV
vector 13  RSUVehicleScenario.node[1].veinsmobility  speed  ETV
vector 14  RSUVehicleScenario.node[1].veinsmobility  acceleration  ETV
vector 15  RSUVehicleScenario.node[1].veinsmobility  co2emission  ETV
vector 18  RSUVehicleScenario.node[2].veinsmobility  posx  ETV
vector 19  RSUVehicleScenario.node[2].veinsmobility  posy  ETV
vector 20  RSUVehicleScenario.node[2].veinsmobility  speed  ETV
vector 21  RSUVehicleScenario.node[2].veinsmobility  acceleration  ETV
vector 22  RSUVehicleScenario.node[2].veinsmobility  co2emission  ETV
vector 25  RSUVehicleScenario.node[3].veinsmobility  posx  ETV
vector 26  RSUVehicleScenario.node[3].veinsmobility  posy  ETV
vector 27  RSUVehicleScenario.node[3].veinsmobility  speed  ETV
vector 28  RSUVehicleScenario.node[3].veinsmobility  acceleration  ETV
vector 29  RSUVehicleScenario.node[3].veinsmobility  co2emission  ETV
vector 32  RSUVehicleScenario.node[4].veinsmobility  posx  ETV
vector 33  RSUVehicleScenario.node[4].veinsmobility  posy  ETV
vector 34  RSUVehicleScenario.node[4].veinsmobility  speed  ETV
vector 35  RSUVehicleScenario.node[4].veinsmobility  acceleration  ETV
vector 36  RSUVehicleScenario.node[4].veinsmobility  co2emission  ETV
8	2024 3202 4 147 0.3 14.6 144 0.973 9.3496226877566 487.63831710161 2433.0309192621
7	5226 3614 4 147 0.3 14.6 144 -4.0311948625099 2.6 58.16870248295 670.4845911314
6	8840 3673 3 147 0.2 14.6 145 0.25286542447004 13.884905587435 1223.9229696514 12804.466615451
5	12513 3695 2 147 0.1 14.6 146 1578.0861504339 1664.8243380953 235843.12826997 381107820.82887
4	16208 3685 2 147 0.1 14.6 146 2333.9721643698 2415.8694684898 346802.5994385 823910535.95036
15	19893 2722 34 147 3.3 14.6 114 0.973 9.4720801065986 413.78269950595 2134.1282115573
14	22615 3080 34 147 3.3 14.6 114 -3.6539664948576 2.5878362877294 84.795433403323 417.83297316931
13	25695 3053 33 147 3.2 14.6 115 0.25157376560476 13.885628737812 1040.835543096 11293.20138139
12	28748 3071 32 147 3.1 14.6 116 1578.0861504339 1648.4808954336 186134.53459087 298737930.92783
11	31819 3083 32 147 3.1 14.6 116 2341.4948020476 2415.8694684898 276696.78454394 660078580.33908
22	34902 2205 64 147 6.3 14.6 84 0.973 10.397915429126 373.93733440383 2109.7031780673
21	37107 2284 64 147 6.3 14.6 84 -0.83190269647165 2.5938958732877 135.71700338923 285.63494269635
20	39391 2285 63 147 6.2 14.6 85 0.25726502669835 13.882936061814 721.66573265788 7752.6794038664
19	41676 2301 62 147 6.1 14.6 86 1578.0861504339 1625.2137546046 137015.19259104 218311358.33472
18	43977 2298 62 147 6.1 14.6 86 2364.056060517 2415.8694684898 206130.9865253 494091164.96515
29	46275 1482 94 147 9.3 14.6 54 1.413918470848 8.2020197292313 226.60945988875 1116.3184978913
28	47757 1481 94 147 9.3 14.6 54 1.3306742926128 2.5679176525911 107.95935039497 224.23528686253
27	49238 1514 93 147 9.2 14.6 55 0.24904955297103 11.044984592468 315.65005302286 2357.3751003853
26	50752 1539 92 147 9.1 14.6 56 1578.0861504339 1596.5208851025 88667.096527392 140391983.18143
25	52291 1537 92 147 9.1 14.6 56 2392.3845621836 2415.8694684898 134808.17079102 324525105.39773
36	53828 663 124 147 12.3 14.6 24 1.4216916713365 3.8849706216377 63.772144338856 181.69734652885
35	54491 665 124 147 12.3 14.6 24 1.4012873555029 2.588163960375 49.342047608468 103.62132675823
34	55156 699 123 147 12.2 14.6 25 0.25788759189239 5.1920923527392 70.45370814583 252.44392068965
33	55855 723 122 147 12.1 14.6 26 1578.0861504339 1580.3355437135 41050.263392656 64812479.152565
32	56578 722 122 147 12.1 14.6 26 2409.7435827301 2415.8694684898 62758.075227629 151483787.64186
